MODEL 1
REMARK VINA RESULT:    -6.704      0.000      0.000
REMARK INTER + INTRA:         -17.091
REMARK INTER:                 -12.975
REMARK INTRA:                  -4.117
REMARK UNBOUND:                -4.117
REMARK  Name = 11954171
REMARK  29 active torsions:
REMARK  status: ('A' for Active; 'I' for Inactive)
REMARK    1  A    between atoms: O_1  and  C_36
REMARK    2  A    between atoms: O_2  and  C_37
REMARK    3  A    between atoms: O_3  and  C_44
REMARK    4  A    between atoms: O_4  and  C_47
REMARK    5  A    between atoms: O_4  and  C_50
REMARK    6  A    between atoms: O_7  and  C_51
REMARK    7  A    between atoms: O_8  and  C_52
REMARK    8  A    between atoms: O_9  and  C_54
REMARK    9  A    between atoms: O_10  and  C_55
REMARK   10  A    between atoms: O_10  and  C_56
REMARK   11  A    between atoms: O_12  and  C_57
REMARK   12  A    between atoms: O_13  and  C_60
REMARK   13  A    between atoms: O_13  and  C_62
REMARK   14  A    between atoms: O_14  and  C_58
REMARK   15  A    between atoms: O_15  and  C_61
REMARK   16  A    between atoms: O_17  and  C_63
REMARK   17  A    between atoms: O_18  and  C_64
REMARK   18  A    between atoms: O_19  and  C_66
REMARK   19  A    between atoms: C_20  and  C_34
REMARK   20  A    between atoms: C_22  and  C_39
REMARK   21  A    between atoms: C_23  and  C_40
REMARK   22  A    between atoms: C_28  and  C_44
REMARK   23  A    between atoms: C_28  and  C_45
REMARK   24  A    between atoms: C_33  and  C_47
REMARK   25  A    between atoms: C_41  and  C_48
REMARK   26  A    between atoms: C_43  and  C_49
REMARK   27  A    between atoms: C_53  and  C_55
REMARK   28  A    between atoms: C_59  and  C_61
REMARK   29  A    between atoms: C_65  and  C_67
REMARK                            x       y       z     vdW  Elec       q    Type
REMARK                         _______ _______ _______ _____ _____    ______ ____
ROOT
ATOM      1  O   UNL     1      29.362  84.155   9.344  1.00  0.00    +0.000 OA
ATOM      2  C   UNL     1      29.735  84.404   7.991  1.00  0.00    +0.000 C 
ATOM      3  C   UNL     1      29.963  83.080   7.217  1.00  0.00    +0.000 C 
ATOM      4  C   UNL     1      29.201  81.931   7.878  1.00  0.00    +0.000 C 
ATOM      5  C   UNL     1      29.998  83.057  10.014  1.00  0.00    +0.000 C 
ATOM      6  C   UNL     1      29.702  81.714   9.315  1.00  0.00    +0.000 C 
ENDROOT
BRANCH   3   7
ATOM      7  O   UNL     1      29.530  83.172   5.850  1.00  0.00    +0.000 OA
ATOM      8  H   UNL     1      29.368  84.114   5.668  1.00  0.00    +0.000 HD
ENDBRANCH   3   7
BRANCH   4   9
ATOM      9  O   UNL     1      29.385  80.729   7.113  1.00  0.00    +0.000 OA
ATOM     10  H   UNL     1      30.022  80.960   6.406  1.00  0.00    +0.000 HD
ENDBRANCH   4   9
BRANCH   6  11
ATOM     11  O   UNL     1      28.726  80.985  10.084  1.00  0.00    +0.000 OA
ATOM     12  H   UNL     1      27.883  81.002   9.596  1.00  0.00    +0.000 HD
ENDBRANCH   6  11
BRANCH   2  13
ATOM     13  O   UNL     1      30.922  85.221   7.832  1.00  0.00    +0.000 OA
BRANCH  13  15
ATOM     14  O   UNL     1      29.986  86.848   6.526  1.00  0.00    +0.000 OA
ATOM     15  C   UNL     1      30.931  86.120   6.796  1.00  0.00    +0.000 C 
BRANCH  15  29
ATOM     16  C   UNL     1      33.201  87.543   1.827  1.00  0.00    +0.000 C 
ATOM     17  C   UNL     1      33.918  88.923   1.574  1.00  0.00    +0.000 C 
ATOM     18  C   UNL     1      33.701  89.556   0.128  1.00  0.00    +0.000 C 
ATOM     19  C   UNL     1      33.689  86.948   3.291  1.00  0.00    +0.000 C 
ATOM     20  C   UNL     1      34.349  88.602  -0.936  1.00  0.00    +0.000 C 
ATOM     21  C   UNL     1      33.494  86.583   0.630  1.00  0.00    +0.000 C 
ATOM     22  C   UNL     1      33.350  87.972   4.385  1.00  0.00    +0.000 C 
ATOM     23  C   UNL     1      34.219  87.091  -0.635  1.00  0.00    +0.000 C 
ATOM     24  C   UNL     1      34.194  89.071  -2.458  1.00  0.00    +0.000 C 
ATOM     25  C   UNL     1      32.796  87.562   5.788  1.00  0.00    +0.000 C 
ATOM     26  C   UNL     1      33.660  89.911   2.736  1.00  0.00    +0.000 C 
ATOM     27  C   UNL     1      34.475  90.905  -0.023  1.00  0.00    +0.000 C 
ATOM     28  C   UNL     1      33.088  85.542   3.601  1.00  0.00    +0.000 C 
ATOM     29  C   UNL     1      32.278  86.087   5.990  1.00  0.00    +0.000 C 
ATOM     30  C   UNL     1      31.643  87.679   1.903  1.00  0.00    +0.000 C 
ATOM     31  C   UNL     1      31.936  85.494   4.602  1.00  0.00    +0.000 C 
ATOM     32  C   UNL     1      34.817  90.499  -2.560  1.00  0.00    +0.000 C 
ATOM     33  C   UNL     1      34.436  91.487  -1.444  1.00  0.00    +0.000 C 
ATOM     34  C   UNL     1      33.391  89.287   4.081  1.00  0.00    +0.000 C 
ATOM     35  C   UNL     1      32.208  89.843  -0.123  1.00  0.00    +0.000 C 
ATOM     36  C   UNL     1      35.236  86.779   3.327  1.00  0.00    +0.000 C 
ATOM     37  C   UNL     1      33.696  88.139   6.947  1.00  0.00    +0.000 C 
ATOM     38  C   UNL     1      33.251  85.153   6.759  1.00  0.00    +0.000 C 
ATOM     39  C   UNL     1      34.359  87.097   7.879  1.00  0.00    +0.000 C 
ATOM     40  C   UNL     1      32.739  89.056  -2.996  1.00  0.00    +0.000 C 
ATOM     41  C   UNL     1      34.582  85.778   7.155  1.00  0.00    +0.000 C 
ATOM     42  C   UNL     1      32.939  89.177   7.804  1.00  0.00    +0.000 C 
ATOM     43  C   UNL     1      35.693  87.630   8.424  1.00  0.00    +0.000 C 
BRANCH  32  44
ATOM     44  O   UNL     1      34.496  91.138  -3.806  1.00  0.00    +0.000 OA
ATOM     45  H   UNL     1      34.184  90.419  -4.398  1.00  0.00    +0.000 HD
ENDBRANCH  32  44
BRANCH  33  46
ATOM     46  O   UNL     1      35.355  92.591  -1.501  1.00  0.00    +0.000 OA
ATOM     47  H   UNL     1      35.574  92.783  -0.569  1.00  0.00    +0.000 HD
ENDBRANCH  33  46
BRANCH  24  48
ATOM     48  C   UNL     1      35.008  88.155  -3.429  1.00  0.00    +0.000 C 
BRANCH  48  49
ATOM     49  O   UNL     1      34.632  88.382  -4.796  1.00  0.00    +0.000 OA
ATOM     50  H   UNL     1      33.855  87.822  -4.987  1.00  0.00    +0.000 HD
ENDBRANCH  48  49
ENDBRANCH  24  48
ENDBRANCH  15  29
ENDBRANCH  13  15
ENDBRANCH   2  13
BRANCH   5  51
ATOM     51  C   UNL     1      31.506  83.290  10.221  1.00  0.00    +0.000 C 
BRANCH  51  52
ATOM     52  O   UNL     1      32.251  82.113  10.545  1.00  0.00    +0.000 OA
BRANCH  52  54
ATOM     53  O   UNL     1      32.732  81.560   8.313  1.00  0.00    +0.000 OA
ATOM     54  C   UNL     1      33.284  81.793   9.599  1.00  0.00    +0.000 C 
ATOM     55  C   UNL     1      33.918  80.481  10.058  1.00  0.00    +0.000 C 
ATOM     56  C   UNL     1      34.913  79.943   9.009  1.00  0.00    +0.000 C 
ATOM     57  C   UNL     1      33.726  81.463   7.285  1.00  0.00    +0.000 C 
ATOM     58  C   UNL     1      35.070  80.883   7.787  1.00  0.00    +0.000 C 
BRANCH  55  59
ATOM     59  O   UNL     1      34.554  80.670  11.333  1.00  0.00    +0.000 OA
ATOM     60  H   UNL     1      34.023  81.360  11.778  1.00  0.00    +0.000 HD
ENDBRANCH  55  59
BRANCH  56  61
ATOM     61  O   UNL     1      34.525  78.634   8.579  1.00  0.00    +0.000 OA
ATOM     62  H   UNL     1      33.563  78.644   8.431  1.00  0.00    +0.000 HD
ENDBRANCH  56  61
BRANCH  58  63
ATOM     63  O   UNL     1      35.930  81.954   8.257  1.00  0.00    +0.000 OA
BRANCH  63  65
ATOM     64  O   UNL     1      38.156  82.699   8.432  1.00  0.00    +0.000 OA
ATOM     65  C   UNL     1      37.179  82.133   7.571  1.00  0.00    +0.000 C 
ATOM     66  C   UNL     1      36.863  83.048   6.351  1.00  0.00    +0.000 C 
ATOM     67  C   UNL     1      37.884  84.181   6.226  1.00  0.00    +0.000 C 
ATOM     68  C   UNL     1      39.421  82.997   7.824  1.00  0.00    +0.000 C 
ATOM     69  C   UNL     1      39.301  83.654   6.443  1.00  0.00    +0.000 C 
ATOM     70  C   UNL     1      40.317  81.766   7.753  1.00  0.00    +0.000 C 
BRANCH  66  71
ATOM     71  O   UNL     1      36.882  82.269   5.137  1.00  0.00    +0.000 OA
ATOM     72  H   UNL     1      36.079  81.713   5.177  1.00  0.00    +0.000 HD
ENDBRANCH  66  71
BRANCH  67  73
ATOM     73  O   UNL     1      37.815  84.804   4.933  1.00  0.00    +0.000 OA
ATOM     74  H   UNL     1      38.080  85.737   5.073  1.00  0.00    +0.000 HD
ENDBRANCH  67  73
BRANCH  69  75
ATOM     75  O   UNL     1      40.248  84.725   6.344  1.00  0.00    +0.000 OA
ATOM     76  H   UNL     1      39.890  85.461   6.882  1.00  0.00    +0.000 HD
ENDBRANCH  69  75
ENDBRANCH  63  65
ENDBRANCH  58  63
BRANCH  57  77
ATOM     77  C   UNL     1      33.128  80.699   6.098  1.00  0.00    +0.000 C 
BRANCH  77  78
ATOM     78  O   UNL     1      32.367  79.572   6.503  1.00  0.00    +0.000 OA
ATOM     79  H   UNL     1      32.974  78.808   6.442  1.00  0.00    +0.000 HD
ENDBRANCH  77  78
ENDBRANCH  57  77
ENDBRANCH  52  54
ENDBRANCH  51  52
ENDBRANCH   5  51
TORSDOF 22
ENDMDL
MODEL 2
REMARK VINA RESULT:    -6.584     21.577     26.753
REMARK INTER + INTRA:         -16.859
REMARK INTER:                 -13.441
REMARK INTRA:                  -3.418
REMARK UNBOUND:                -4.117
REMARK  Name = 11954171
REMARK  29 active torsions:
REMARK  status: ('A' for Active; 'I' for Inactive)
REMARK    1  A    between atoms: O_1  and  C_36
REMARK    2  A    between atoms: O_2  and  C_37
REMARK    3  A    between atoms: O_3  and  C_44
REMARK    4  A    between atoms: O_4  and  C_47
REMARK    5  A    between atoms: O_4  and  C_50
REMARK    6  A    between atoms: O_7  and  C_51
REMARK    7  A    between atoms: O_8  and  C_52
REMARK    8  A    between atoms: O_9  and  C_54
REMARK    9  A    between atoms: O_10  and  C_55
REMARK   10  A    between atoms: O_10  and  C_56
REMARK   11  A    between atoms: O_12  and  C_57
REMARK   12  A    between atoms: O_13  and  C_60
REMARK   13  A    between atoms: O_13  and  C_62
REMARK   14  A    between atoms: O_14  and  C_58
REMARK   15  A    between atoms: O_15  and  C_61
REMARK   16  A    between atoms: O_17  and  C_63
REMARK   17  A    between atoms: O_18  and  C_64
REMARK   18  A    between atoms: O_19  and  C_66
REMARK   19  A    between atoms: C_20  and  C_34
REMARK   20  A    between atoms: C_22  and  C_39
REMARK   21  A    between atoms: C_23  and  C_40
REMARK   22  A    between atoms: C_28  and  C_44
REMARK   23  A    between atoms: C_28  and  C_45
REMARK   24  A    between atoms: C_33  and  C_47
REMARK   25  A    between atoms: C_41  and  C_48
REMARK   26  A    between atoms: C_43  and  C_49
REMARK   27  A    between atoms: C_53  and  C_55
REMARK   28  A    between atoms: C_59  and  C_61
REMARK   29  A    between atoms: C_65  and  C_67
REMARK                            x       y       z     vdW  Elec       q    Type
REMARK                         _______ _______ _______ _____ _____    ______ ____
ROOT
ATOM      1  O   UNL     1      24.114  64.887  23.780  1.00  0.00    +0.000 OA
ATOM      2  C   UNL     1      23.376  65.406  22.676  1.00  0.00    +0.000 C 
ATOM      3  C   UNL     1      22.150  64.514  22.348  1.00  0.00    +0.000 C 
ATOM      4  C   UNL     1      21.730  63.705  23.575  1.00  0.00    +0.000 C 
ATOM      5  C   UNL     1      24.243  63.462  23.878  1.00  0.00    +0.000 C 
ATOM      6  C   UNL     1      22.869  62.773  24.018  1.00  0.00    +0.000 C 
ENDROOT
BRANCH   3   7
ATOM      7  O   UNL     1      21.019  65.289  21.917  1.00  0.00    +0.000 OA
ATOM      8  H   UNL     1      20.477  65.460  22.707  1.00  0.00    +0.000 HD
ENDBRANCH   3   7
BRANCH   4   9
ATOM      9  O   UNL     1      20.561  62.930  23.262  1.00  0.00    +0.000 OA
ATOM     10  H   UNL     1      20.881  62.014  23.127  1.00  0.00    +0.000 HD
ENDBRANCH   4   9
BRANCH   6  11
ATOM     11  O   UNL     1      22.682  62.363  25.386  1.00  0.00    +0.000 OA
ATOM     12  H   UNL     1      21.729  62.232  25.534  1.00  0.00    +0.000 HD
ENDBRANCH   6  11
BRANCH   2  13
ATOM     13  O   UNL     1      24.146  65.567  21.458  1.00  0.00    +0.000 OA
BRANCH  13  15
ATOM     14  O   UNL     1      23.120  67.450  20.667  1.00  0.00    +0.000 OA
ATOM     15  C   UNL     1      24.139  66.805  20.870  1.00  0.00    +0.000 C 
BRANCH  15  29
ATOM     16  C   UNL     1      28.386  65.710  17.316  1.00  0.00    +0.000 C 
ATOM     17  C   UNL     1      28.543  66.421  15.918  1.00  0.00    +0.000 C 
ATOM     18  C   UNL     1      29.111  65.509  14.743  1.00  0.00    +0.000 C 
ATOM     19  C   UNL     1      27.975  66.843  18.448  1.00  0.00    +0.000 C 
ATOM     20  C   UNL     1      30.577  65.082  15.106  1.00  0.00    +0.000 C 
ATOM     21  C   UNL     1      29.703  64.937  17.651  1.00  0.00    +0.000 C 
ATOM     22  C   UNL     1      26.672  67.533  18.015  1.00  0.00    +0.000 C 
ATOM     23  C   UNL     1      30.831  64.803  16.605  1.00  0.00    +0.000 C 
ATOM     24  C   UNL     1      31.294  64.128  14.041  1.00  0.00    +0.000 C 
ATOM     25  C   UNL     1      25.535  67.904  19.020  1.00  0.00    +0.000 C 
ATOM     26  C   UNL     1      27.263  67.204  15.542  1.00  0.00    +0.000 C 
ATOM     27  C   UNL     1      29.250  66.318  13.413  1.00  0.00    +0.000 C 
ATOM     28  C   UNL     1      27.870  66.247  19.886  1.00  0.00    +0.000 C 
ATOM     29  C   UNL     1      25.579  67.285  20.469  1.00  0.00    +0.000 C 
ATOM     30  C   UNL     1      27.242  64.642  17.323  1.00  0.00    +0.000 C 
ATOM     31  C   UNL     1      26.463  66.014  20.431  1.00  0.00    +0.000 C 
ATOM     32  C   UNL     1      31.272  64.877  12.671  1.00  0.00    +0.000 C 
ATOM     33  C   UNL     1      29.940  65.540  12.282  1.00  0.00    +0.000 C 
ATOM     34  C   UNL     1      26.430  67.697  16.697  1.00  0.00    +0.000 C 
ATOM     35  C   UNL     1      28.168  64.321  14.470  1.00  0.00    +0.000 C 
ATOM     36  C   UNL     1      29.051  67.965  18.518  1.00  0.00    +0.000 C 
ATOM     37  C   UNL     1      25.181  69.439  18.940  1.00  0.00    +0.000 C 
ATOM     38  C   UNL     1      26.066  68.255  21.579  1.00  0.00    +0.000 C 
ATOM     39  C   UNL     1      25.391  70.256  20.236  1.00  0.00    +0.000 C 
ATOM     40  C   UNL     1      30.671  62.713  13.916  1.00  0.00    +0.000 C 
ATOM     41  C   UNL     1      26.481  69.640  21.102  1.00  0.00    +0.000 C 
ATOM     42  C   UNL     1      23.747  69.675  18.418  1.00  0.00    +0.000 C 
ATOM     43  C   UNL     1      25.745  71.714  19.906  1.00  0.00    +0.000 C 
BRANCH  32  44
ATOM     44  O   UNL     1      31.638  64.014  11.581  1.00  0.00    +0.000 OA
ATOM     45  H   UNL     1      31.022  64.238  10.850  1.00  0.00    +0.000 HD
ENDBRANCH  32  44
BRANCH  33  46
ATOM     46  O   UNL     1      30.202  66.455  11.205  1.00  0.00    +0.000 OA
ATOM     47  H   UNL     1      31.104  66.234  10.901  1.00  0.00    +0.000 HD
ENDBRANCH  33  46
BRANCH  24  48
ATOM     48  C   UNL     1      32.797  63.892  14.400  1.00  0.00    +0.000 C 
BRANCH  48  49
ATOM     49  O   UNL     1      33.385  62.894  13.552  1.00  0.00    +0.000 OA
ATOM     50  H   UNL     1      33.078  63.060  12.640  1.00  0.00    +0.000 HD
ENDBRANCH  48  49
ENDBRANCH  24  48
ENDBRANCH  15  29
ENDBRANCH  13  15
ENDBRANCH   2  13
BRANCH   5  51
ATOM     51  C   UNL     1      25.082  62.869  22.731  1.00  0.00    +0.000 C 
BRANCH  51  52
ATOM     52  O   UNL     1      24.978  61.450  22.590  1.00  0.00    +0.000 OA
BRANCH  52  54
ATOM     53  O   UNL     1      24.350  62.130  20.432  1.00  0.00    +0.000 OA
ATOM     54  C   UNL     1      24.529  61.019  21.295  1.00  0.00    +0.000 C 
ATOM     55  C   UNL     1      23.157  60.378  21.490  1.00  0.00    +0.000 C 
ATOM     56  C   UNL     1      22.494  60.051  20.135  1.00  0.00    +0.000 C 
ATOM     57  C   UNL     1      24.127  61.750  19.068  1.00  0.00    +0.000 C 
ATOM     58  C   UNL     1      23.397  60.393  18.924  1.00  0.00    +0.000 C 
BRANCH  55  59
ATOM     59  O   UNL     1      23.281  59.203  22.308  1.00  0.00    +0.000 OA
ATOM     60  H   UNL     1      23.916  58.632  21.832  1.00  0.00    +0.000 HD
ENDBRANCH  55  59
BRANCH  56  61
ATOM     61  O   UNL     1      21.236  60.724  20.020  1.00  0.00    +0.000 OA
ATOM     62  H   UNL     1      20.625  60.130  19.549  1.00  0.00    +0.000 HD
ENDBRANCH  56  61
BRANCH  58  63
ATOM     63  O   UNL     1      24.364  59.311  18.870  1.00  0.00    +0.000 OA
BRANCH  63  65
ATOM     64  O   UNL     1      25.481  60.270  17.033  1.00  0.00    +0.000 OA
ATOM     65  C   UNL     1      24.993  59.065  17.602  1.00  0.00    +0.000 C 
ATOM     66  C   UNL     1      23.906  58.388  16.717  1.00  0.00    +0.000 C 
ATOM     67  C   UNL     1      23.843  59.027  15.327  1.00  0.00    +0.000 C 
ATOM     68  C   UNL     1      26.057  60.150  15.725  1.00  0.00    +0.000 C 
ATOM     69  C   UNL     1      25.250  59.254  14.777  1.00  0.00    +0.000 C 
ATOM     70  C   UNL     1      27.508  59.691  15.787  1.00  0.00    +0.000 C 
BRANCH  66  71
ATOM     71  O   UNL     1      24.199  56.983  16.570  1.00  0.00    +0.000 OA
ATOM     72  H   UNL     1      24.878  56.935  15.869  1.00  0.00    +0.000 HD
ENDBRANCH  66  71
BRANCH  67  73
ATOM     73  O   UNL     1      23.113  58.200  14.406  1.00  0.00    +0.000 OA
ATOM     74  H   UNL     1      23.476  58.407  13.519  1.00  0.00    +0.000 HD
ENDBRANCH  67  73
BRANCH  69  75
ATOM     75  O   UNL     1      25.181  59.870  13.484  1.00  0.00    +0.000 OA
ATOM     76  H   UNL     1      24.238  60.081  13.329  1.00  0.00    +0.000 HD
ENDBRANCH  69  75
ENDBRANCH  63  65
ENDBRANCH  58  63
BRANCH  57  77
ATOM     77  C   UNL     1      23.426  62.908  18.347  1.00  0.00    +0.000 C 
BRANCH  77  78
ATOM     78  O   UNL     1      23.037  63.946  19.232  1.00  0.00    +0.000 OA
ATOM     79  H   UNL     1      22.334  64.440  18.767  1.00  0.00    +0.000 HD
ENDBRANCH  77  78
ENDBRANCH  57  77
ENDBRANCH  52  54
ENDBRANCH  51  52
ENDBRANCH   5  51
TORSDOF 22
ENDMDL
MODEL 3
REMARK VINA RESULT:    -6.583     21.512     27.332
REMARK INTER + INTRA:         -16.856
REMARK INTER:                 -12.989
REMARK INTRA:                  -3.867
REMARK UNBOUND:                -4.117
REMARK  Name = 11954171
REMARK  29 active torsions:
REMARK  status: ('A' for Active; 'I' for Inactive)
REMARK    1  A    between atoms: O_1  and  C_36
REMARK    2  A    between atoms: O_2  and  C_37
REMARK    3  A    between atoms: O_3  and  C_44
REMARK    4  A    between atoms: O_4  and  C_47
REMARK    5  A    between atoms: O_4  and  C_50
REMARK    6  A    between atoms: O_7  and  C_51
REMARK    7  A    between atoms: O_8  and  C_52
REMARK    8  A    between atoms: O_9  and  C_54
REMARK    9  A    between atoms: O_10  and  C_55
REMARK   10  A    between atoms: O_10  and  C_56
REMARK   11  A    between atoms: O_12  and  C_57
REMARK   12  A    between atoms: O_13  and  C_60
REMARK   13  A    between atoms: O_13  and  C_62
REMARK   14  A    between atoms: O_14  and  C_58
REMARK   15  A    between atoms: O_15  and  C_61
REMARK   16  A    between atoms: O_17  and  C_63
REMARK   17  A    between atoms: O_18  and  C_64
REMARK   18  A    between atoms: O_19  and  C_66
REMARK   19  A    between atoms: C_20  and  C_34
REMARK   20  A    between atoms: C_22  and  C_39
REMARK   21  A    between atoms: C_23  and  C_40
REMARK   22  A    between atoms: C_28  and  C_44
REMARK   23  A    between atoms: C_28  and  C_45
REMARK   24  A    between atoms: C_33  and  C_47
REMARK   25  A    between atoms: C_41  and  C_48
REMARK   26  A    between atoms: C_43  and  C_49
REMARK   27  A    between atoms: C_53  and  C_55
REMARK   28  A    between atoms: C_59  and  C_61
REMARK   29  A    between atoms: C_65  and  C_67
REMARK                            x       y       z     vdW  Elec       q    Type
REMARK                         _______ _______ _______ _____ _____    ______ ____
ROOT
ATOM      1  O   UNL     1      24.315  63.963  22.655  1.00  0.00    +0.000 OA
ATOM      2  C   UNL     1      23.549  65.054  22.149  1.00  0.00    +0.000 C 
ATOM      3  C   UNL     1      22.090  64.625  21.845  1.00  0.00    +0.000 C 
ATOM      4  C   UNL     1      21.707  63.396  22.670  1.00  0.00    +0.000 C 
ATOM      5  C   UNL     1      24.073  62.666  22.090  1.00  0.00    +0.000 C 
ATOM      6  C   UNL     1      22.616  62.209  22.316  1.00  0.00    +0.000 C 
ENDROOT
BRANCH   3   7
ATOM      7  O   UNL     1      21.148  65.670  22.140  1.00  0.00    +0.000 OA
ATOM      8  H   UNL     1      20.897  65.568  23.074  1.00  0.00    +0.000 HD
ENDBRANCH   3   7
BRANCH   4   9
ATOM      9  O   UNL     1      20.336  63.052  22.413  1.00  0.00    +0.000 OA
ATOM     10  H   UNL     1      19.844  63.305  23.221  1.00  0.00    +0.000 HD
ENDBRANCH   4   9
BRANCH   6  11
ATOM     11  O   UNL     1      22.587  61.222  23.364  1.00  0.00    +0.000 OA
ATOM     12  H   UNL     1      21.676  60.887  23.439  1.00  0.00    +0.000 HD
ENDBRANCH   6  11
BRANCH   2  13
ATOM     13  O   UNL     1      24.090  65.667  20.951  1.00  0.00    +0.000 OA
BRANCH  13  15
ATOM     14  O   UNL     1      23.264  67.782  21.212  1.00  0.00    +0.000 OA
ATOM     15  C   UNL     1      24.191  67.034  20.937  1.00  0.00    +0.000 C 
BRANCH  15  29
ATOM     16  C   UNL     1      28.421  65.888  17.378  1.00  0.00    +0.000 C 
ATOM     17  C   UNL     1      28.552  66.555  15.955  1.00  0.00    +0.000 C 
ATOM     18  C   UNL     1      29.123  65.614  14.805  1.00  0.00    +0.000 C 
ATOM     19  C   UNL     1      28.002  67.051  18.476  1.00  0.00    +0.000 C 
ATOM     20  C   UNL     1      30.599  65.222  15.167  1.00  0.00    +0.000 C 
ATOM     21  C   UNL     1      29.752  65.148  17.724  1.00  0.00    +0.000 C 
ATOM     22  C   UNL     1      26.684  67.707  18.034  1.00  0.00    +0.000 C 
ATOM     23  C   UNL     1      30.873  64.997  16.672  1.00  0.00    +0.000 C 
ATOM     24  C   UNL     1      31.321  64.245  14.127  1.00  0.00    +0.000 C 
ATOM     25  C   UNL     1      25.551  68.093  19.037  1.00  0.00    +0.000 C 
ATOM     26  C   UNL     1      27.256  67.305  15.567  1.00  0.00    +0.000 C 
ATOM     27  C   UNL     1      29.236  66.380  13.448  1.00  0.00    +0.000 C 
ATOM     28  C   UNL     1      27.921  66.502  19.934  1.00  0.00    +0.000 C 
ATOM     29  C   UNL     1      25.619  67.522  20.506  1.00  0.00    +0.000 C 
ATOM     30  C   UNL     1      27.294  64.803  17.432  1.00  0.00    +0.000 C 
ATOM     31  C   UNL     1      26.523  66.265  20.500  1.00  0.00    +0.000 C 
ATOM     32  C   UNL     1      31.274  64.947  12.733  1.00  0.00    +0.000 C 
ATOM     33  C   UNL     1      29.928  65.576  12.336  1.00  0.00    +0.000 C 
ATOM     34  C   UNL     1      26.426  67.823  16.713  1.00  0.00    +0.000 C 
ATOM     35  C   UNL     1      28.197  64.402  14.581  1.00  0.00    +0.000 C 
ATOM     36  C   UNL     1      29.061  68.192  18.498  1.00  0.00    +0.000 C 
ATOM     37  C   UNL     1      25.172  69.618  18.911  1.00  0.00    +0.000 C 
ATOM     38  C   UNL     1      26.102  68.536  21.578  1.00  0.00    +0.000 C 
ATOM     39  C   UNL     1      25.382  70.481  20.177  1.00  0.00    +0.000 C 
ATOM     40  C   UNL     1      30.720  62.817  14.055  1.00  0.00    +0.000 C 
ATOM     41  C   UNL     1      26.489  69.911  21.052  1.00  0.00    +0.000 C 
ATOM     42  C   UNL     1      23.730  69.815  18.396  1.00  0.00    +0.000 C 
ATOM     43  C   UNL     1      25.708  71.933  19.795  1.00  0.00    +0.000 C 
BRANCH  32  44
ATOM     44  O   UNL     1      31.643  64.055  11.669  1.00  0.00    +0.000 OA
ATOM     45  H   UNL     1      32.348  64.521  11.168  1.00  0.00    +0.000 HD
ENDBRANCH  32  44
BRANCH  33  46
ATOM     46  O   UNL     1      30.164  66.459  11.227  1.00  0.00    +0.000 OA
ATOM     47  H   UNL     1      30.770  65.967  10.639  1.00  0.00    +0.000 HD
ENDBRANCH  33  46
BRANCH  24  48
ATOM     48  C   UNL     1      32.832  64.045  14.478  1.00  0.00    +0.000 C 
BRANCH  48  49
ATOM     49  O   UNL     1      33.676  64.803  13.598  1.00  0.00    +0.000 OA
ATOM     50  H   UNL     1      33.130  65.095  12.843  1.00  0.00    +0.000 HD
ENDBRANCH  48  49
ENDBRANCH  24  48
ENDBRANCH  15  29
ENDBRANCH  13  15
ENDBRANCH   2  13
BRANCH   5  51
ATOM     51  C   UNL     1      24.489  62.584  20.610  1.00  0.00    +0.000 C 
BRANCH  51  52
ATOM     52  O   UNL     1      23.443  62.190  19.718  1.00  0.00    +0.000 OA
BRANCH  52  54
ATOM     53  O   UNL     1      24.831  60.314  19.454  1.00  0.00    +0.000 OA
ATOM     54  C   UNL     1      23.774  61.067  18.885  1.00  0.00    +0.000 C 
ATOM     55  C   UNL     1      24.289  61.631  17.561  1.00  0.00    +0.000 C 
ATOM     56  C   UNL     1      24.854  60.515  16.659  1.00  0.00    +0.000 C 
ATOM     57  C   UNL     1      25.049  59.062  18.791  1.00  0.00    +0.000 C 
ATOM     58  C   UNL     1      24.708  59.104  17.282  1.00  0.00    +0.000 C 
BRANCH  55  59
ATOM     59  O   UNL     1      23.237  62.356  16.901  1.00  0.00    +0.000 OA
ATOM     60  H   UNL     1      22.557  61.684  16.701  1.00  0.00    +0.000 HD
ENDBRANCH  55  59
BRANCH  56  61
ATOM     61  O   UNL     1      26.225  60.776  16.342  1.00  0.00    +0.000 OA
ATOM     62  H   UNL     1      26.767  60.114  16.804  1.00  0.00    +0.000 HD
ENDBRANCH  56  61
BRANCH  58  63
ATOM     63  O   UNL     1      23.314  58.754  17.077  1.00  0.00    +0.000 OA
BRANCH  63  65
ATOM     64  O   UNL     1      22.881  56.474  17.470  1.00  0.00    +0.000 OA
ATOM     65  C   UNL     1      22.746  57.792  17.980  1.00  0.00    +0.000 C 
ATOM     66  C   UNL     1      21.256  58.209  18.156  1.00  0.00    +0.000 C 
ATOM     67  C   UNL     1      20.321  57.006  18.018  1.00  0.00    +0.000 C 
ATOM     68  C   UNL     1      22.273  55.439  18.255  1.00  0.00    +0.000 C 
ATOM     69  C   UNL     1      20.878  55.803  18.778  1.00  0.00    +0.000 C 
ATOM     70  C   UNL     1      23.174  54.998  19.402  1.00  0.00    +0.000 C 
BRANCH  66  71
ATOM     71  O   UNL     1      21.065  58.799  19.460  1.00  0.00    +0.000 OA
ATOM     72  H   UNL     1      21.710  59.530  19.507  1.00  0.00    +0.000 HD
ENDBRANCH  66  71
BRANCH  67  73
ATOM     73  O   UNL     1      19.009  57.304  18.521  1.00  0.00    +0.000 OA
ATOM     74  H   UNL     1      18.939  58.281  18.519  1.00  0.00    +0.000 HD
ENDBRANCH  67  73
BRANCH  69  75
ATOM     75  O   UNL     1      20.005  54.675  18.625  1.00  0.00    +0.000 OA
ATOM     76  H   UNL     1      20.558  53.944  18.281  1.00  0.00    +0.000 HD
ENDBRANCH  69  75
ENDBRANCH  63  65
ENDBRANCH  58  63
BRANCH  57  77
ATOM     77  C   UNL     1      26.479  58.594  19.088  1.00  0.00    +0.000 C 
BRANCH  77  78
ATOM     78  O   UNL     1      27.445  59.603  18.840  1.00  0.00    +0.000 OA
ATOM     79  H   UNL     1      27.968  59.286  18.078  1.00  0.00    +0.000 HD
ENDBRANCH  77  78
ENDBRANCH  57  77
ENDBRANCH  52  54
ENDBRANCH  51  52
ENDBRANCH   5  51
TORSDOF 22
ENDMDL
MODEL 4
REMARK VINA RESULT:    -6.461      6.355     15.988
REMARK INTER + INTRA:         -16.620
REMARK INTER:                 -13.062
REMARK INTRA:                  -3.558
REMARK UNBOUND:                -4.117
REMARK  Name = 11954171
REMARK  29 active torsions:
REMARK  status: ('A' for Active; 'I' for Inactive)
REMARK    1  A    between atoms: O_1  and  C_36
REMARK    2  A    between atoms: O_2  and  C_37
REMARK    3  A    between atoms: O_3  and  C_44
REMARK    4  A    between atoms: O_4  and  C_47
REMARK    5  A    between atoms: O_4  and  C_50
REMARK    6  A    between atoms: O_7  and  C_51
REMARK    7  A    between atoms: O_8  and  C_52
REMARK    8  A    between atoms: O_9  and  C_54
REMARK    9  A    between atoms: O_10  and  C_55
REMARK   10  A    between atoms: O_10  and  C_56
REMARK   11  A    between atoms: O_12  and  C_57
REMARK   12  A    between atoms: O_13  and  C_60
REMARK   13  A    between atoms: O_13  and  C_62
REMARK   14  A    between atoms: O_14  and  C_58
REMARK   15  A    between atoms: O_15  and  C_61
REMARK   16  A    between atoms: O_17  and  C_63
REMARK   17  A    between atoms: O_18  and  C_64
REMARK   18  A    between atoms: O_19  and  C_66
REMARK   19  A    between atoms: C_20  and  C_34
REMARK   20  A    between atoms: C_22  and  C_39
REMARK   21  A    between atoms: C_23  and  C_40
REMARK   22  A    between atoms: C_28  and  C_44
REMARK   23  A    between atoms: C_28  and  C_45
REMARK   24  A    between atoms: C_33  and  C_47
REMARK   25  A    between atoms: C_41  and  C_48
REMARK   26  A    between atoms: C_43  and  C_49
REMARK   27  A    between atoms: C_53  and  C_55
REMARK   28  A    between atoms: C_59  and  C_61
REMARK   29  A    between atoms: C_65  and  C_67
REMARK                            x       y       z     vdW  Elec       q    Type
REMARK                         _______ _______ _______ _____ _____    ______ ____
ROOT
ATOM      1  O   UNL     1      33.449  96.208  -6.036  1.00  0.00    +0.000 OA
ATOM      2  C   UNL     1      33.101  94.831  -6.158  1.00  0.00    +0.000 C 
ATOM      3  C   UNL     1      32.381  94.318  -4.884  1.00  0.00    +0.000 C 
ATOM      4  C   UNL     1      31.736  95.478  -4.126  1.00  0.00    +0.000 C 
ATOM      5  C   UNL     1      33.894  96.668  -4.752  1.00  0.00    +0.000 C 
ATOM      6  C   UNL     1      32.806  96.483  -3.673  1.00  0.00    +0.000 C 
ENDROOT
BRANCH   3   7
ATOM      7  O   UNL     1      31.353  93.362  -5.192  1.00  0.00    +0.000 OA
ATOM      8  H   UNL     1      31.768  92.482  -5.164  1.00  0.00    +0.000 HD
ENDBRANCH   3   7
BRANCH   4   9
ATOM      9  O   UNL     1      31.030  94.971  -2.981  1.00  0.00    +0.000 OA
ATOM     10  H   UNL     1      31.545  94.196  -2.675  1.00  0.00    +0.000 HD
ENDBRANCH   4   9
BRANCH   6  11
ATOM     11  O   UNL     1      32.207  97.760  -3.381  1.00  0.00    +0.000 OA
ATOM     12  H   UNL     1      32.819  98.257  -2.810  1.00  0.00    +0.000 HD
ENDBRANCH   6  11
BRANCH   2  13
ATOM     13  O   UNL     1      34.219  93.946  -6.422  1.00  0.00    +0.000 OA
BRANCH  13  15
ATOM     14  O   UNL     1      33.455  93.101  -8.404  1.00  0.00    +0.000 OA
ATOM     15  C   UNL     1      34.021  92.940  -7.332  1.00  0.00    +0.000 C 
BRANCH  15  29
ATOM     16  C   UNL     1      33.579  89.202  -3.124  1.00  0.00    +0.000 C 
ATOM     17  C   UNL     1      32.598  87.970  -3.169  1.00  0.00    +0.000 C 
ATOM     18  C   UNL     1      31.919  87.581  -1.782  1.00  0.00    +0.000 C 
ATOM     19  C   UNL     1      34.332  89.339  -4.591  1.00  0.00    +0.000 C 
ATOM     20  C   UNL     1      33.042  87.123  -0.787  1.00  0.00    +0.000 C 
ATOM     21  C   UNL     1      34.566  89.031  -1.925  1.00  0.00    +0.000 C 
ATOM     22  C   UNL     1      33.267  89.502  -5.687  1.00  0.00    +0.000 C 
ATOM     23  C   UNL     1      34.379  87.892  -0.900  1.00  0.00    +0.000 C 
ATOM     24  C   UNL     1      32.537  86.724   0.677  1.00  0.00    +0.000 C 
ATOM     25  C   UNL     1      33.434  90.483  -6.892  1.00  0.00    +0.000 C 
ATOM     26  C   UNL     1      31.599  88.091  -4.344  1.00  0.00    +0.000 C 
ATOM     27  C   UNL     1      30.989  86.335  -1.935  1.00  0.00    +0.000 C 
ATOM     28  C   UNL     1      35.384  90.490  -4.623  1.00  0.00    +0.000 C 
ATOM     29  C   UNL     1      34.582  91.562  -6.830  1.00  0.00    +0.000 C 
ATOM     30  C   UNL     1      32.833  90.557  -2.883  1.00  0.00    +0.000 C 
ATOM     31  C   UNL     1      34.977  91.771  -5.348  1.00  0.00    +0.000 C 
ATOM     32  C   UNL     1      31.476  85.592   0.500  1.00  0.00    +0.000 C 
ATOM     33  C   UNL     1      30.428  85.812  -0.603  1.00  0.00    +0.000 C 
ATOM     34  C   UNL     1      32.075  88.887  -5.532  1.00  0.00    +0.000 C 
ATOM     35  C   UNL     1      31.057  88.744  -1.251  1.00  0.00    +0.000 C 
ATOM     36  C   UNL     1      35.104  88.032  -4.935  1.00  0.00    +0.000 C 
ATOM     37  C   UNL     1      33.274  89.729  -8.267  1.00  0.00    +0.000 C 
ATOM     38  C   UNL     1      35.833  91.234  -7.688  1.00  0.00    +0.000 C 
ATOM     39  C   UNL     1      34.502  89.758  -9.208  1.00  0.00    +0.000 C 
ATOM     40  C   UNL     1      31.966  87.902   1.509  1.00  0.00    +0.000 C 
ATOM     41  C   UNL     1      35.795  89.898  -8.418  1.00  0.00    +0.000 C 
ATOM     42  C   UNL     1      32.028  90.203  -9.045  1.00  0.00    +0.000 C 
ATOM     43  C   UNL     1      34.550  88.489 -10.073  1.00  0.00    +0.000 C 
BRANCH  32  44
ATOM     44  O   UNL     1      30.751  85.341   1.716  1.00  0.00    +0.000 OA
ATOM     45  H   UNL     1      30.784  84.368   1.845  1.00  0.00    +0.000 HD
ENDBRANCH  32  44
BRANCH  33  46
ATOM     46  O   UNL     1      29.782  84.553  -0.854  1.00  0.00    +0.000 OA
ATOM     47  H   UNL     1      29.547  84.210   0.030  1.00  0.00    +0.000 HD
ENDBRANCH  33  46
BRANCH  24  48
ATOM     48  C   UNL     1      33.693  86.124   1.542  1.00  0.00    +0.000 C 
BRANCH  48  49
ATOM     49  O   UNL     1      33.450  84.743   1.851  1.00  0.00    +0.000 OA
ATOM     50  H   UNL     1      34.020  84.504   2.607  1.00  0.00    +0.000 HD
ENDBRANCH  48  49
ENDBRANCH  24  48
ENDBRANCH  15  29
ENDBRANCH  13  15
ENDBRANCH   2  13
BRANCH   5  51
ATOM     51  C   UNL     1      35.240  96.043  -4.339  1.00  0.00    +0.000 C 
BRANCH  51  52
ATOM     52  O   UNL     1      36.353  96.939  -4.395  1.00  0.00    +0.000 OA
BRANCH  52  54
ATOM     53  O   UNL     1      36.547  96.691  -6.722  1.00  0.00    +0.000 OA
ATOM     54  C   UNL     1      37.250  96.694  -5.490  1.00  0.00    +0.000 C 
ATOM     55  C   UNL     1      37.817  95.289  -5.296  1.00  0.00    +0.000 C 
ATOM     56  C   UNL     1      38.647  94.846  -6.519  1.00  0.00    +0.000 C 
ATOM     57  C   UNL     1      37.416  96.682  -7.863  1.00  0.00    +0.000 C 
ATOM     58  C   UNL     1      38.752  95.944  -7.607  1.00  0.00    +0.000 C 
BRANCH  55  59
ATOM     59  O   UNL     1      38.598  95.242  -4.090  1.00  0.00    +0.000 OA
ATOM     60  H   UNL     1      38.500  96.131  -3.694  1.00  0.00    +0.000 HD
ENDBRANCH  55  59
BRANCH  56  61
ATOM     61  O   UNL     1      38.107  93.645  -7.080  1.00  0.00    +0.000 OA
ATOM     62  H   UNL     1      38.619  92.896  -6.725  1.00  0.00    +0.000 HD
ENDBRANCH  56  61
BRANCH  58  63
ATOM     63  O   UNL     1      39.743  96.873  -7.096  1.00  0.00    +0.000 OA
BRANCH  63  65
ATOM     64  O   UNL     1      41.199  95.575  -8.414  1.00  0.00    +0.000 OA
ATOM     65  C   UNL     1      41.102  96.669  -7.515  1.00  0.00    +0.000 C 
ATOM     66  C   UNL     1      41.915  96.437  -6.208  1.00  0.00    +0.000 C 
ATOM     67  C   UNL     1      42.845  95.228  -6.339  1.00  0.00    +0.000 C 
ATOM     68  C   UNL     1      42.527  95.231  -8.833  1.00  0.00    +0.000 C 
ATOM     69  C   UNL     1      43.553  95.239  -7.692  1.00  0.00    +0.000 C 
ATOM     70  C   UNL     1      43.001  96.109  -9.984  1.00  0.00    +0.000 C 
BRANCH  66  71
ATOM     71  O   UNL     1      42.710  97.604  -5.913  1.00  0.00    +0.000 OA
ATOM     72  H   UNL     1      43.461  97.275  -5.382  1.00  0.00    +0.000 HD
ENDBRANCH  66  71
BRANCH  67  73
ATOM     73  O   UNL     1      43.836  95.217  -5.299  1.00  0.00    +0.000 OA
ATOM     74  H   UNL     1      44.561  94.647  -5.628  1.00  0.00    +0.000 HD
ENDBRANCH  67  73
BRANCH  69  75
ATOM     75  O   UNL     1      44.405  94.093  -7.814  1.00  0.00    +0.000 OA
ATOM     76  H   UNL     1      44.787  93.938  -6.926  1.00  0.00    +0.000 HD
ENDBRANCH  69  75
ENDBRANCH  63  65
ENDBRANCH  58  63
BRANCH  57  77
ATOM     77  C   UNL     1      36.633  96.144  -9.067  1.00  0.00    +0.000 C 
BRANCH  77  78
ATOM     78  O   UNL     1      35.907  94.964  -8.763  1.00  0.00    +0.000 OA
ATOM     79  H   UNL     1      36.296  94.621  -7.935  1.00  0.00    +0.000 HD
ENDBRANCH  77  78
ENDBRANCH  57  77
ENDBRANCH  52  54
ENDBRANCH  51  52
ENDBRANCH   5  51
TORSDOF 22
ENDMDL
MODEL 5
REMARK VINA RESULT:    -6.430     19.004     23.845
REMARK INTER + INTRA:         -16.561
REMARK INTER:                 -13.410
REMARK INTRA:                  -3.151
REMARK UNBOUND:                -4.117
REMARK  Name = 11954171
REMARK  29 active torsions:
REMARK  status: ('A' for Active; 'I' for Inactive)
REMARK    1  A    between atoms: O_1  and  C_36
REMARK    2  A    between atoms: O_2  and  C_37
REMARK    3  A    between atoms: O_3  and  C_44
REMARK    4  A    between atoms: O_4  and  C_47
REMARK    5  A    between atoms: O_4  and  C_50
REMARK    6  A    between atoms: O_7  and  C_51
REMARK    7  A    between atoms: O_8  and  C_52
REMARK    8  A    between atoms: O_9  and  C_54
REMARK    9  A    between atoms: O_10  and  C_55
REMARK   10  A    between atoms: O_10  and  C_56
REMARK   11  A    between atoms: O_12  and  C_57
REMARK   12  A    between atoms: O_13  and  C_60
REMARK   13  A    between atoms: O_13  and  C_62
REMARK   14  A    between atoms: O_14  and  C_58
REMARK   15  A    between atoms: O_15  and  C_61
REMARK   16  A    between atoms: O_17  and  C_63
REMARK   17  A    between atoms: O_18  and  C_64
REMARK   18  A    between atoms: O_19  and  C_66
REMARK   19  A    between atoms: C_20  and  C_34
REMARK   20  A    between atoms: C_22  and  C_39
REMARK   21  A    between atoms: C_23  and  C_40
REMARK   22  A    between atoms: C_28  and  C_44
REMARK   23  A    between atoms: C_28  and  C_45
REMARK   24  A    between atoms: C_33  and  C_47
REMARK   25  A    between atoms: C_41  and  C_48
REMARK   26  A    between atoms: C_43  and  C_49
REMARK   27  A    between atoms: C_53  and  C_55
REMARK   28  A    between atoms: C_59  and  C_61
REMARK   29  A    between atoms: C_65  and  C_67
REMARK                            x       y       z     vdW  Elec       q    Type
REMARK                         _______ _______ _______ _____ _____    ______ ____
ROOT
ATOM      1  O   UNL     1      37.738  74.005 -17.561  1.00  0.00    +0.000 OA
ATOM      2  C   UNL     1      36.656  73.786 -16.660  1.00  0.00    +0.000 C 
ATOM      3  C   UNL     1      36.144  75.121 -16.058  1.00  0.00    +0.000 C 
ATOM      4  C   UNL     1      36.499  76.294 -16.972  1.00  0.00    +0.000 C 
ATOM      5  C   UNL     1      38.688  75.024 -17.218  1.00  0.00    +0.000 C 
ATOM      6  C   UNL     1      38.024  76.414 -17.121  1.00  0.00    +0.000 C 
ENDROOT
BRANCH   3   7
ATOM      7  O   UNL     1      34.719  75.118 -15.871  1.00  0.00    +0.000 OA
ATOM      8  H   UNL     1      34.338  75.644 -16.595  1.00  0.00    +0.000 HD
ENDBRANCH   3   7
BRANCH   4   9
ATOM      9  O   UNL     1      35.968  77.510 -16.421  1.00  0.00    +0.000 OA
ATOM     10  H   UNL     1      35.449  77.923 -17.142  1.00  0.00    +0.000 HD
ENDBRANCH   4   9
BRANCH   6  11
ATOM     11  O   UNL     1      38.356  77.180 -18.294  1.00  0.00    +0.000 OA
ATOM     12  H   UNL     1      37.746  77.937 -18.344  1.00  0.00    +0.000 HD
ENDBRANCH   6  11
BRANCH   2  13
ATOM     13  O   UNL     1      36.957  72.890 -15.560  1.00  0.00    +0.000 OA
BRANCH  13  15
ATOM     14  O   UNL     1      36.330  70.941 -16.577  1.00  0.00    +0.000 OA
ATOM     15  C   UNL     1      36.372  71.651 -15.582  1.00  0.00    +0.000 C 
BRANCH  15  29
ATOM     16  C   UNL     1      33.342  73.740 -11.301  1.00  0.00    +0.000 C 
ATOM     17  C   UNL     1      31.771  73.634 -11.227  1.00  0.00    +0.000 C 
ATOM     18  C   UNL     1      31.026  74.892 -10.596  1.00  0.00    +0.000 C 
ATOM     19  C   UNL     1      33.953  72.285 -11.797  1.00  0.00    +0.000 C 
ATOM     20  C   UNL     1      31.458  75.025  -9.093  1.00  0.00    +0.000 C 
ATOM     21  C   UNL     1      33.891  74.212  -9.917  1.00  0.00    +0.000 C 
ATOM     22  C   UNL     1      33.345  71.926 -13.162  1.00  0.00    +0.000 C 
ATOM     23  C   UNL     1      32.931  74.664  -8.795  1.00  0.00    +0.000 C 
ATOM     24  C   UNL     1      30.824  76.266  -8.307  1.00  0.00    +0.000 C 
ATOM     25  C   UNL     1      34.174  71.275 -14.314  1.00  0.00    +0.000 C 
ATOM     26  C   UNL     1      31.177  73.165 -12.577  1.00  0.00    +0.000 C 
ATOM     27  C   UNL     1      29.480  74.670 -10.548  1.00  0.00    +0.000 C 
ATOM     28  C   UNL     1      35.513  72.266 -11.829  1.00  0.00    +0.000 C 
ATOM     29  C   UNL     1      35.747  71.261 -14.195  1.00  0.00    +0.000 C 
ATOM     30  C   UNL     1      33.825  74.801 -12.345  1.00  0.00    +0.000 C 
ATOM     31  C   UNL     1      36.171  72.371 -13.203  1.00  0.00    +0.000 C 
ATOM     32  C   UNL     1      29.272  76.128  -8.415  1.00  0.00    +0.000 C 
ATOM     33  C   UNL     1      28.717  75.778  -9.806  1.00  0.00    +0.000 C 
ATOM     34  C   UNL     1      32.082  72.320 -13.436  1.00  0.00    +0.000 C 
ATOM     35  C   UNL     1      31.290  76.159 -11.432  1.00  0.00    +0.000 C 
ATOM     36  C   UNL     1      33.522  71.149 -10.824  1.00  0.00    +0.000 C 
ATOM     37  C   UNL     1      33.512  69.930 -14.804  1.00  0.00    +0.000 C 
ATOM     38  C   UNL     1      36.358  69.895 -13.782  1.00  0.00    +0.000 C 
ATOM     39  C   UNL     1      34.368  68.651 -14.651  1.00  0.00    +0.000 C 
ATOM     40  C   UNL     1      31.298  77.657  -8.803  1.00  0.00    +0.000 C 
ATOM     41  C   UNL     1      35.354  68.787 -13.499  1.00  0.00    +0.000 C 
ATOM     42  C   UNL     1      33.008  70.032 -16.261  1.00  0.00    +0.000 C 
ATOM     43  C   UNL     1      33.472  67.423 -14.434  1.00  0.00    +0.000 C 
BRANCH  32  44
ATOM     44  O   UNL     1      28.596  77.322  -7.987  1.00  0.00    +0.000 OA
ATOM     45  H   UNL     1      28.681  77.954  -8.734  1.00  0.00    +0.000 HD
ENDBRANCH  32  44
BRANCH  33  46
ATOM     46  O   UNL     1      27.354  75.350  -9.641  1.00  0.00    +0.000 OA
ATOM     47  H   UNL     1      27.324  74.947  -8.752  1.00  0.00    +0.000 HD
ENDBRANCH  33  46
BRANCH  24  48
ATOM     48  C   UNL     1      31.174  76.223  -6.785  1.00  0.00    +0.000 C 
BRANCH  48  49
ATOM     49  O   UNL     1      30.490  77.259  -6.064  1.00  0.00    +0.000 OA
ATOM     50  H   UNL     1      29.801  76.835  -5.517  1.00  0.00    +0.000 HD
ENDBRANCH  48  49
ENDBRANCH  24  48
ENDBRANCH  15  29
ENDBRANCH  13  15
ENDBRANCH   2  13
BRANCH   5  51
ATOM     51  C   UNL     1      39.496  74.672 -15.955  1.00  0.00    +0.000 C 
BRANCH  51  52
ATOM     52  O   UNL     1      40.754  74.041 -16.209  1.00  0.00    +0.000 OA
BRANCH  52  54
ATOM     53  O   UNL     1      40.168  72.561 -14.482  1.00  0.00    +0.000 OA
ATOM     54  C   UNL     1      41.238  73.238 -15.120  1.00  0.00    +0.000 C 
ATOM     55  C   UNL     1      41.837  74.196 -14.092  1.00  0.00    +0.000 C 
ATOM     56  C   UNL     1      42.216  73.457 -12.792  1.00  0.00    +0.000 C 
ATOM     57  C   UNL     1      40.610  71.573 -13.542  1.00  0.00    +0.000 C 
ATOM     58  C   UNL     1      41.956  71.932 -12.867  1.00  0.00    +0.000 C 
BRANCH  55  59
ATOM     59  O   UNL     1      42.972  74.871 -14.661  1.00  0.00    +0.000 OA
ATOM     60  H   UNL     1      43.210  75.557 -14.006  1.00  0.00    +0.000 HD
ENDBRANCH  55  59
BRANCH  56  61
ATOM     61  O   UNL     1      41.522  74.023 -11.676  1.00  0.00    +0.000 OA
ATOM     62  H   UNL     1      40.811  73.407 -11.426  1.00  0.00    +0.000 HD
ENDBRANCH  56  61
BRANCH  58  63
ATOM     63  O   UNL     1      43.061  71.409 -13.651  1.00  0.00    +0.000 OA
BRANCH  63  65
ATOM     64  O   UNL     1      42.611  69.099 -13.693  1.00  0.00    +0.000 OA
ATOM     65  C   UNL     1      43.540  70.100 -13.306  1.00  0.00    +0.000 C 
ATOM     66  C   UNL     1      43.773  70.129 -11.767  1.00  0.00    +0.000 C 
ATOM     67  C   UNL     1      43.175  68.893 -11.090  1.00  0.00    +0.000 C 
ATOM     68  C   UNL     1      42.953  67.757 -13.322  1.00  0.00    +0.000 C 
ATOM     69  C   UNL     1      43.496  67.634 -11.892  1.00  0.00    +0.000 C 
ATOM     70  C   UNL     1      43.919  67.125 -14.316  1.00  0.00    +0.000 C 
BRANCH  66  71
ATOM     71  O   UNL     1      45.189  70.172 -11.487  1.00  0.00    +0.000 OA
ATOM     72  H   UNL     1      45.606  69.648 -12.198  1.00  0.00    +0.000 HD
ENDBRANCH  66  71
BRANCH  67  73
ATOM     73  O   UNL     1      43.682  68.733  -9.755  1.00  0.00    +0.000 OA
ATOM     74  H   UNL     1      42.975  68.273  -9.256  1.00  0.00    +0.000 HD
ENDBRANCH  67  73
BRANCH  69  75
ATOM     75  O   UNL     1      42.914  66.485 -11.262  1.00  0.00    +0.000 OA
ATOM     76  H   UNL     1      41.953  66.659 -11.203  1.00  0.00    +0.000 HD
ENDBRANCH  69  75
ENDBRANCH  63  65
ENDBRANCH  58  63
BRANCH  57  77
ATOM     77  C   UNL     1      39.474  71.300 -12.549  1.00  0.00    +0.000 C 
BRANCH  77  78
ATOM     78  O   UNL     1      39.950  70.970 -11.254  1.00  0.00    +0.000 OA
ATOM     79  H   UNL     1      40.558  71.693 -11.004  1.00  0.00    +0.000 HD
ENDBRANCH  77  78
ENDBRANCH  57  77
ENDBRANCH  52  54
ENDBRANCH  51  52
ENDBRANCH   5  51
TORSDOF 22
ENDMDL
MODEL 6
REMARK VINA RESULT:    -6.388      4.451      9.909
REMARK INTER + INTRA:         -16.479
REMARK INTER:                 -12.471
REMARK INTRA:                  -4.008
REMARK UNBOUND:                -4.117
REMARK  Name = 11954171
REMARK  29 active torsions:
REMARK  status: ('A' for Active; 'I' for Inactive)
REMARK    1  A    between atoms: O_1  and  C_36
REMARK    2  A    between atoms: O_2  and  C_37
REMARK    3  A    between atoms: O_3  and  C_44
REMARK    4  A    between atoms: O_4  and  C_47
REMARK    5  A    between atoms: O_4  and  C_50
REMARK    6  A    between atoms: O_7  and  C_51
REMARK    7  A    between atoms: O_8  and  C_52
REMARK    8  A    between atoms: O_9  and  C_54
REMARK    9  A    between atoms: O_10  and  C_55
REMARK   10  A    between atoms: O_10  and  C_56
REMARK   11  A    between atoms: O_12  and  C_57
REMARK   12  A    between atoms: O_13  and  C_60
REMARK   13  A    between atoms: O_13  and  C_62
REMARK   14  A    between atoms: O_14  and  C_58
REMARK   15  A    between atoms: O_15  and  C_61
REMARK   16  A    between atoms: O_17  and  C_63
REMARK   17  A    between atoms: O_18  and  C_64
REMARK   18  A    between atoms: O_19  and  C_66
REMARK   19  A    between atoms: C_20  and  C_34
REMARK   20  A    between atoms: C_22  and  C_39
REMARK   21  A    between atoms: C_23  and  C_40
REMARK   22  A    between atoms: C_28  and  C_44
REMARK   23  A    between atoms: C_28  and  C_45
REMARK   24  A    between atoms: C_33  and  C_47
REMARK   25  A    between atoms: C_41  and  C_48
REMARK   26  A    between atoms: C_43  and  C_49
REMARK   27  A    between atoms: C_53  and  C_55
REMARK   28  A    between atoms: C_59  and  C_61
REMARK   29  A    between atoms: C_65  and  C_67
REMARK                            x       y       z     vdW  Elec       q    Type
REMARK                         _______ _______ _______ _____ _____    ______ ____
ROOT
ATOM      1  O   UNL     1      34.652  93.777   0.043  1.00  0.00    +0.000 OA
ATOM      2  C   UNL     1      34.171  93.211  -1.174  1.00  0.00    +0.000 C 
ATOM      3  C   UNL     1      32.659  92.876  -1.081  1.00  0.00    +0.000 C 
ATOM      4  C   UNL     1      31.985  93.729  -0.006  1.00  0.00    +0.000 C 
ATOM      5  C   UNL     1      34.131  93.248   1.270  1.00  0.00    +0.000 C 
ATOM      6  C   UNL     1      32.603  93.443   1.371  1.00  0.00    +0.000 C 
ENDROOT
BRANCH   3   7
ATOM      7  O   UNL     1      31.977  93.106  -2.324  1.00  0.00    +0.000 OA
ATOM      8  H   UNL     1      32.630  93.481  -2.939  1.00  0.00    +0.000 HD
ENDBRANCH   3   7
BRANCH   4   9
ATOM      9  O   UNL     1      30.577  93.440   0.024  1.00  0.00    +0.000 OA
ATOM     10  H   UNL     1      30.141  94.278   0.281  1.00  0.00    +0.000 HD
ENDBRANCH   4   9
BRANCH   6  11
ATOM     11  O   UNL     1      32.324  94.522   2.283  1.00  0.00    +0.000 OA
ATOM     12  H   UNL     1      32.691  95.340   1.905  1.00  0.00    +0.000 HD
ENDBRANCH   6  11
BRANCH   2  13
ATOM     13  O   UNL     1      34.865  92.011  -1.599  1.00  0.00    +0.000 OA
BRANCH  13  15
ATOM     14  O   UNL     1      35.453  92.632  -3.719  1.00  0.00    +0.000 OA
ATOM     15  C   UNL     1      34.991  91.803  -2.948  1.00  0.00    +0.000 C 
BRANCH  15  29
ATOM     16  C   UNL     1      31.110  87.905  -1.677  1.00  0.00    +0.000 C 
ATOM     17  C   UNL     1      29.685  87.859  -2.349  1.00  0.00    +0.000 C 
ATOM     18  C   UNL     1      28.489  87.413  -1.397  1.00  0.00    +0.000 C 
ATOM     19  C   UNL     1      32.243  88.194  -2.846  1.00  0.00    +0.000 C 
ATOM     20  C   UNL     1      28.734  85.929  -0.949  1.00  0.00    +0.000 C 
ATOM     21  C   UNL     1      31.348  86.579  -0.886  1.00  0.00    +0.000 C 
ATOM     22  C   UNL     1      31.907  89.517  -3.552  1.00  0.00    +0.000 C 
ATOM     23  C   UNL     1      30.212  85.549  -0.702  1.00  0.00    +0.000 C 
ATOM     24  C   UNL     1      27.636  85.326   0.046  1.00  0.00    +0.000 C 
ATOM     25  C   UNL     1      32.997  90.555  -3.972  1.00  0.00    +0.000 C 
ATOM     26  C   UNL     1      29.401  89.152  -3.149  1.00  0.00    +0.000 C 
ATOM     27  C   UNL     1      27.131  87.377  -2.169  1.00  0.00    +0.000 C 
ATOM     28  C   UNL     1      33.700  88.183  -2.288  1.00  0.00    +0.000 C 
ATOM     29  C   UNL     1      34.453  90.394  -3.387  1.00  0.00    +0.000 C 
ATOM     30  C   UNL     1      31.245  89.064  -0.633  1.00  0.00    +0.000 C 
ATOM     31  C   UNL     1      34.371  89.541  -2.098  1.00  0.00    +0.000 C 
ATOM     32  C   UNL     1      26.254  85.455  -0.669  1.00  0.00    +0.000 C 
ATOM     33  C   UNL     1      25.965  86.803  -1.349  1.00  0.00    +0.000 C 
ATOM     34  C   UNL     1      30.611  89.872  -3.688  1.00  0.00    +0.000 C 
ATOM     35  C   UNL     1      28.331  88.398  -0.222  1.00  0.00    +0.000 C 
ATOM     36  C   UNL     1      32.189  87.096  -3.947  1.00  0.00    +0.000 C 
ATOM     37  C   UNL     1      32.908  90.885  -5.511  1.00  0.00    +0.000 C 
ATOM     38  C   UNL     1      35.490  89.794  -4.375  1.00  0.00    +0.000 C 
ATOM     39  C   UNL     1      34.158  90.547  -6.355  1.00  0.00    +0.000 C 
ATOM     40  C   UNL     1      27.604  85.983   1.450  1.00  0.00    +0.000 C 
ATOM     41  C   UNL     1      34.942  89.397  -5.739  1.00  0.00    +0.000 C 
ATOM     42  C   UNL     1      32.507  92.355  -5.764  1.00  0.00    +0.000 C 
ATOM     43  C   UNL     1      33.759  90.197  -7.797  1.00  0.00    +0.000 C 
BRANCH  32  44
ATOM     44  O   UNL     1      25.160  85.202   0.229  1.00  0.00    +0.000 OA
ATOM     45  H   UNL     1      24.458  85.840  -0.025  1.00  0.00    +0.000 HD
ENDBRANCH  32  44
BRANCH  33  46
ATOM     46  O   UNL     1      24.845  86.620  -2.232  1.00  0.00    +0.000 OA
ATOM     47  H   UNL     1      24.221  87.333  -1.996  1.00  0.00    +0.000 HD
ENDBRANCH  33  46
BRANCH  24  48
ATOM     48  C   UNL     1      27.868  83.802   0.304  1.00  0.00    +0.000 C 
BRANCH  48  49
ATOM     49  O   UNL     1      27.138  83.351   1.455  1.00  0.00    +0.000 OA
ATOM     50  H   UNL     1      27.779  83.225   2.181  1.00  0.00    +0.000 HD
ENDBRANCH  48  49
ENDBRANCH  24  48
ENDBRANCH  15  29
ENDBRANCH  13  15
ENDBRANCH   2  13
BRANCH   5  51
ATOM     51  C   UNL     1      34.551  91.785   1.504  1.00  0.00    +0.000 C 
BRANCH  51  52
ATOM     52  O   UNL     1      33.464  90.860   1.591  1.00  0.00    +0.000 OA
BRANCH  52  54
ATOM     53  O   UNL     1      34.028  88.583   1.481  1.00  0.00    +0.000 OA
ATOM     54  C   UNL     1      33.761  89.674   2.346  1.00  0.00    +0.000 C 
ATOM     55  C   UNL     1      32.501  89.321   3.135  1.00  0.00    +0.000 C 
ATOM     56  C   UNL     1      32.644  87.954   3.835  1.00  0.00    +0.000 C 
ATOM     57  C   UNL     1      34.553  87.438   2.167  1.00  0.00    +0.000 C 
ATOM     58  C   UNL     1      34.035  87.308   3.620  1.00  0.00    +0.000 C 
BRANCH  55  59
ATOM     59  O   UNL     1      32.211  90.365   4.080  1.00  0.00    +0.000 OA
ATOM     60  H   UNL     1      31.624  89.949   4.740  1.00  0.00    +0.000 HD
ENDBRANCH  55  59
BRANCH  56  61
ATOM     61  O   UNL     1      31.612  87.062   3.402  1.00  0.00    +0.000 OA
ATOM     62  H   UNL     1      30.774  87.365   3.795  1.00  0.00    +0.000 HD
ENDBRANCH  56  61
BRANCH  58  63
ATOM     63  O   UNL     1      34.915  88.021   4.528  1.00  0.00    +0.000 OA
BRANCH  63  65
ATOM     64  O   UNL     1      37.103  87.858   5.383  1.00  0.00    +0.000 OA
ATOM     65  C   UNL     1      35.832  87.230   5.300  1.00  0.00    +0.000 C 
ATOM     66  C   UNL     1      35.900  85.848   4.587  1.00  0.00    +0.000 C 
ATOM     67  C   UNL     1      37.347  85.380   4.415  1.00  0.00    +0.000 C 
ATOM     68  C   UNL     1      38.121  87.113   6.065  1.00  0.00    +0.000 C 
ATOM     69  C   UNL     1      38.145  85.624   5.695  1.00  0.00    +0.000 C 
ATOM     70  C   UNL     1      38.030  87.285   7.576  1.00  0.00    +0.000 C 
BRANCH  66  71
ATOM     71  O   UNL     1      35.182  84.863   5.359  1.00  0.00    +0.000 OA
ATOM     72  H   UNL     1      34.649  84.366   4.708  1.00  0.00    +0.000 HD
ENDBRANCH  66  71
BRANCH  67  73
ATOM     73  O   UNL     1      37.409  83.982   4.091  1.00  0.00    +0.000 OA
ATOM     74  H   UNL     1      37.061  83.511   4.877  1.00  0.00    +0.000 HD
ENDBRANCH  67  73
BRANCH  69  75
ATOM     75  O   UNL     1      39.504  85.202   5.518  1.00  0.00    +0.000 OA
ATOM     76  H   UNL     1      39.601  84.973   4.571  1.00  0.00    +0.000 HD
ENDBRANCH  69  75
ENDBRANCH  63  65
ENDBRANCH  58  63
BRANCH  57  77
ATOM     77  C   UNL     1      34.300  86.195   1.307  1.00  0.00    +0.000 C 
BRANCH  77  78
ATOM     78  O   UNL     1      33.674  85.148   2.032  1.00  0.00    +0.000 OA
ATOM     79  H   UNL     1      34.312  84.408   2.030  1.00  0.00    +0.000 HD
ENDBRANCH  77  78
ENDBRANCH  57  77
ENDBRANCH  52  54
ENDBRANCH  51  52
ENDBRANCH   5  51
TORSDOF 22
ENDMDL
MODEL 7
REMARK VINA RESULT:    -6.356      6.311     14.495
REMARK INTER + INTRA:         -16.419
REMARK INTER:                 -13.300
REMARK INTRA:                  -3.118
REMARK UNBOUND:                -4.117
REMARK  Name = 11954171
REMARK  29 active torsions:
REMARK  status: ('A' for Active; 'I' for Inactive)
REMARK    1  A    between atoms: O_1  and  C_36
REMARK    2  A    between atoms: O_2  and  C_37
REMARK    3  A    between atoms: O_3  and  C_44
REMARK    4  A    between atoms: O_4  and  C_47
REMARK    5  A    between atoms: O_4  and  C_50
REMARK    6  A    between atoms: O_7  and  C_51
REMARK    7  A    between atoms: O_8  and  C_52
REMARK    8  A    between atoms: O_9  and  C_54
REMARK    9  A    between atoms: O_10  and  C_55
REMARK   10  A    between atoms: O_10  and  C_56
REMARK   11  A    between atoms: O_12  and  C_57
REMARK   12  A    between atoms: O_13  and  C_60
REMARK   13  A    between atoms: O_13  and  C_62
REMARK   14  A    between atoms: O_14  and  C_58
REMARK   15  A    between atoms: O_15  and  C_61
REMARK   16  A    between atoms: O_17  and  C_63
REMARK   17  A    between atoms: O_18  and  C_64
REMARK   18  A    between atoms: O_19  and  C_66
REMARK   19  A    between atoms: C_20  and  C_34
REMARK   20  A    between atoms: C_22  and  C_39
REMARK   21  A    between atoms: C_23  and  C_40
REMARK   22  A    between atoms: C_28  and  C_44
REMARK   23  A    between atoms: C_28  and  C_45
REMARK   24  A    between atoms: C_33  and  C_47
REMARK   25  A    between atoms: C_41  and  C_48
REMARK   26  A    between atoms: C_43  and  C_49
REMARK   27  A    between atoms: C_53  and  C_55
REMARK   28  A    between atoms: C_59  and  C_61
REMARK   29  A    between atoms: C_65  and  C_67
REMARK                            x       y       z     vdW  Elec       q    Type
REMARK                         _______ _______ _______ _____ _____    ______ ____
ROOT
ATOM      1  O   UNL     1      33.583  96.077  -5.065  1.00  0.00    +0.000 OA
ATOM      2  C   UNL     1      33.243  94.895  -5.787  1.00  0.00    +0.000 C 
ATOM      3  C   UNL     1      32.196  94.047  -5.018  1.00  0.00    +0.000 C 
ATOM      4  C   UNL     1      31.404  94.921  -4.046  1.00  0.00    +0.000 C 
ATOM      5  C   UNL     1      33.682  95.974  -3.638  1.00  0.00    +0.000 C 
ATOM      6  C   UNL     1      32.342  95.547  -3.002  1.00  0.00    +0.000 C 
ENDROOT
BRANCH   3   7
ATOM      7  O   UNL     1      31.262  93.408  -5.904  1.00  0.00    +0.000 OA
ATOM      8  H   UNL     1      31.039  92.549  -5.507  1.00  0.00    +0.000 HD
ENDBRANCH   3   7
BRANCH   4   9
ATOM      9  O   UNL     1      30.406  94.125  -3.387  1.00  0.00    +0.000 OA
ATOM     10  H   UNL     1      30.899  93.429  -2.905  1.00  0.00    +0.000 HD
ENDBRANCH   4   9
BRANCH   6  11
ATOM     11  O   UNL     1      31.722  96.694  -2.390  1.00  0.00    +0.000 OA
ATOM     12  H   UNL     1      32.222  97.486  -2.656  1.00  0.00    +0.000 HD
ENDBRANCH   6  11
BRANCH   2  13
ATOM     13  O   UNL     1      34.367  94.035  -6.101  1.00  0.00    +0.000 OA
BRANCH  13  15
ATOM     14  O   UNL     1      33.616  93.267  -8.120  1.00  0.00    +0.000 OA
ATOM     15  C   UNL     1      34.167  93.063  -7.047  1.00  0.00    +0.000 C 
BRANCH  15  29
ATOM     16  C   UNL     1      33.583  89.166  -3.004  1.00  0.00    +0.000 C 
ATOM     17  C   UNL     1      32.593  87.945  -3.124  1.00  0.00    +0.000 C 
ATOM     18  C   UNL     1      31.874  87.507  -1.772  1.00  0.00    +0.000 C 
ATOM     19  C   UNL     1      34.376  89.354  -4.444  1.00  0.00    +0.000 C 
ATOM     20  C   UNL     1      32.967  87.000  -0.767  1.00  0.00    +0.000 C 
ATOM     21  C   UNL     1      34.536  88.939  -1.787  1.00  0.00    +0.000 C 
ATOM     22  C   UNL     1      33.342  89.569  -5.560  1.00  0.00    +0.000 C 
ATOM     23  C   UNL     1      34.312  87.761  -0.814  1.00  0.00    +0.000 C 
ATOM     24  C   UNL     1      32.420  86.548   0.667  1.00  0.00    +0.000 C 
ATOM     25  C   UNL     1      33.549  90.595  -6.720  1.00  0.00    +0.000 C 
ATOM     26  C   UNL     1      31.628  88.121  -4.320  1.00  0.00    +0.000 C 
ATOM     27  C   UNL     1      30.940  86.276  -1.999  1.00  0.00    +0.000 C 
ATOM     28  C   UNL     1      35.438  90.496  -4.402  1.00  0.00    +0.000 C 
ATOM     29  C   UNL     1      34.703  91.661  -6.585  1.00  0.00    +0.000 C 
ATOM     30  C   UNL     1      32.841  90.517  -2.729  1.00  0.00    +0.000 C 
ATOM     31  C   UNL     1      35.060  91.808  -5.086  1.00  0.00    +0.000 C 
ATOM     32  C   UNL     1      31.355  85.434   0.416  1.00  0.00    +0.000 C 
ATOM     33  C   UNL     1      30.338  85.706  -0.705  1.00  0.00    +0.000 C 
ATOM     34  C   UNL     1      32.141  88.959  -5.462  1.00  0.00    +0.000 C 
ATOM     35  C   UNL     1      31.008  88.655  -1.219  1.00  0.00    +0.000 C 
ATOM     36  C   UNL     1      35.147  88.055  -4.819  1.00  0.00    +0.000 C 
ATOM     37  C   UNL     1      33.421  89.897  -8.128  1.00  0.00    +0.000 C 
ATOM     38  C   UNL     1      35.975  91.356  -7.422  1.00  0.00    +0.000 C 
ATOM     39  C   UNL     1      34.673  89.953  -9.034  1.00  0.00    +0.000 C 
ATOM     40  C   UNL     1      31.836  87.697   1.529  1.00  0.00    +0.000 C 
ATOM     41  C   UNL     1      35.945  90.051  -8.205  1.00  0.00    +0.000 C 
ATOM     42  C   UNL     1      32.199  90.413  -8.920  1.00  0.00    +0.000 C 
ATOM     43  C   UNL     1      34.736  88.719  -9.948  1.00  0.00    +0.000 C 
BRANCH  32  44
ATOM     44  O   UNL     1      30.595  85.141   1.601  1.00  0.00    +0.000 OA
ATOM     45  H   UNL     1      29.821  85.744   1.573  1.00  0.00    +0.000 HD
ENDBRANCH  32  44
BRANCH  33  46
ATOM     46  O   UNL     1      29.690  84.463  -1.023  1.00  0.00    +0.000 OA
ATOM     47  H   UNL     1      29.481  84.525  -1.975  1.00  0.00    +0.000 HD
ENDBRANCH  33  46
BRANCH  24  48
ATOM     48  C   UNL     1      33.548  85.904   1.537  1.00  0.00    +0.000 C 
BRANCH  48  49
ATOM     49  O   UNL     1      33.218  84.555   1.902  1.00  0.00    +0.000 OA
ATOM     50  H   UNL     1      32.620  84.594   2.673  1.00  0.00    +0.000 HD
ENDBRANCH  48  49
ENDBRANCH  24  48
ENDBRANCH  15  29
ENDBRANCH  13  15
ENDBRANCH   2  13
BRANCH   5  51
ATOM     51  C   UNL     1      34.853  95.078  -3.194  1.00  0.00    +0.000 C 
BRANCH  51  52
ATOM     52  O   UNL     1      36.115  95.413  -3.777  1.00  0.00    +0.000 OA
BRANCH  52  54
ATOM     53  O   UNL     1      37.042  94.890  -1.683  1.00  0.00    +0.000 OA
ATOM     54  C   UNL     1      37.137  95.733  -2.819  1.00  0.00    +0.000 C 
ATOM     55  C   UNL     1      36.869  97.159  -2.341  1.00  0.00    +0.000 C 
ATOM     56  C   UNL     1      37.795  97.539  -1.167  1.00  0.00    +0.000 C 
ATOM     57  C   UNL     1      38.167  95.005  -0.803  1.00  0.00    +0.000 C 
ATOM     58  C   UNL     1      38.800  96.417  -0.803  1.00  0.00    +0.000 C 
BRANCH  55  59
ATOM     59  O   UNL     1      37.014  98.075  -3.440  1.00  0.00    +0.000 OA
ATOM     60  H   UNL     1      36.273  97.864  -4.040  1.00  0.00    +0.000 HD
ENDBRANCH  55  59
BRANCH  56  61
ATOM     61  O   UNL     1      37.022  97.902  -0.019  1.00  0.00    +0.000 OA
ATOM     62  H   UNL     1      37.637  98.027   0.725  1.00  0.00    +0.000 HD
ENDBRANCH  56  61
BRANCH  58  63
ATOM     63  O   UNL     1      39.829  96.501  -1.824  1.00  0.00    +0.000 OA
BRANCH  63  65
ATOM     64  O   UNL     1      41.937  96.507  -0.775  1.00  0.00    +0.000 OA
ATOM     65  C   UNL     1      41.040  95.765  -1.589  1.00  0.00    +0.000 C 
ATOM     66  C   UNL     1      41.630  95.463  -2.997  1.00  0.00    +0.000 C 
ATOM     67  C   UNL     1      43.126  95.780  -3.054  1.00  0.00    +0.000 C 
ATOM     68  C   UNL     1      43.214  95.898  -0.544  1.00  0.00    +0.000 C 
ATOM     69  C   UNL     1      43.831  95.268  -1.800  1.00  0.00    +0.000 C 
ATOM     70  C   UNL     1      43.158  94.881   0.590  1.00  0.00    +0.000 C 
BRANCH  66  71
ATOM     71  O   UNL     1      41.438  94.069  -3.319  1.00  0.00    +0.000 OA
ATOM     72  H   UNL     1      41.819  93.578  -2.565  1.00  0.00    +0.000 HD
ENDBRANCH  66  71
BRANCH  67  73
ATOM     73  O   UNL     1      43.742  95.185  -4.207  1.00  0.00    +0.000 OA
ATOM     74  H   UNL     1      44.705  95.195  -4.029  1.00  0.00    +0.000 HD
ENDBRANCH  67  73
BRANCH  69  75
ATOM     75  O   UNL     1      45.228  95.588  -1.853  1.00  0.00    +0.000 OA
ATOM     76  H   UNL     1      45.571  95.480  -0.942  1.00  0.00    +0.000 HD
ENDBRANCH  69  75
ENDBRANCH  63  65
ENDBRANCH  58  63
BRANCH  57  77
ATOM     77  C   UNL     1      37.751  94.515   0.589  1.00  0.00    +0.000 C 
BRANCH  77  78
ATOM     78  O   UNL     1      36.485  95.018   0.988  1.00  0.00    +0.000 OA
ATOM     79  H   UNL     1      36.670  95.666   1.696  1.00  0.00    +0.000 HD
ENDBRANCH  77  78
ENDBRANCH  57  77
ENDBRANCH  52  54
ENDBRANCH  51  52
ENDBRANCH   5  51
TORSDOF 22
ENDMDL
MODEL 8
REMARK VINA RESULT:    -6.317     19.735     24.066
REMARK INTER + INTRA:         -16.341
REMARK INTER:                 -12.302
REMARK INTRA:                  -4.040
REMARK UNBOUND:                -4.117
REMARK  Name = 11954171
REMARK  29 active torsions:
REMARK  status: ('A' for Active; 'I' for Inactive)
REMARK    1  A    between atoms: O_1  and  C_36
REMARK    2  A    between atoms: O_2  and  C_37
REMARK    3  A    between atoms: O_3  and  C_44
REMARK    4  A    between atoms: O_4  and  C_47
REMARK    5  A    between atoms: O_4  and  C_50
REMARK    6  A    between atoms: O_7  and  C_51
REMARK    7  A    between atoms: O_8  and  C_52
REMARK    8  A    between atoms: O_9  and  C_54
REMARK    9  A    between atoms: O_10  and  C_55
REMARK   10  A    between atoms: O_10  and  C_56
REMARK   11  A    between atoms: O_12  and  C_57
REMARK   12  A    between atoms: O_13  and  C_60
REMARK   13  A    between atoms: O_13  and  C_62
REMARK   14  A    between atoms: O_14  and  C_58
REMARK   15  A    between atoms: O_15  and  C_61
REMARK   16  A    between atoms: O_17  and  C_63
REMARK   17  A    between atoms: O_18  and  C_64
REMARK   18  A    between atoms: O_19  and  C_66
REMARK   19  A    between atoms: C_20  and  C_34
REMARK   20  A    between atoms: C_22  and  C_39
REMARK   21  A    between atoms: C_23  and  C_40
REMARK   22  A    between atoms: C_28  and  C_44
REMARK   23  A    between atoms: C_28  and  C_45
REMARK   24  A    between atoms: C_33  and  C_47
REMARK   25  A    between atoms: C_41  and  C_48
REMARK   26  A    between atoms: C_43  and  C_49
REMARK   27  A    between atoms: C_53  and  C_55
REMARK   28  A    between atoms: C_59  and  C_61
REMARK   29  A    between atoms: C_65  and  C_67
REMARK                            x       y       z     vdW  Elec       q    Type
REMARK                         _______ _______ _______ _____ _____    ______ ____
ROOT
ATOM      1  O   UNL     1      33.640  68.461 -17.108  1.00  0.00    +0.000 OA
ATOM      2  C   UNL     1      33.062  68.454 -15.805  1.00  0.00    +0.000 C 
ATOM      3  C   UNL     1      32.430  69.828 -15.462  1.00  0.00    +0.000 C 
ATOM      4  C   UNL     1      32.079  70.593 -16.739  1.00  0.00    +0.000 C 
ATOM      5  C   UNL     1      34.308  69.658 -17.530  1.00  0.00    +0.000 C 
ATOM      6  C   UNL     1      33.345  70.865 -17.565  1.00  0.00    +0.000 C 
ENDROOT
BRANCH   3   7
ATOM      7  O   UNL     1      31.232  69.692 -14.682  1.00  0.00    +0.000 OA
ATOM      8  H   UNL     1      30.955  70.590 -14.430  1.00  0.00    +0.000 HD
ENDBRANCH   3   7
BRANCH   4   9
ATOM      9  O   UNL     1      31.447  71.837 -16.395  1.00  0.00    +0.000 OA
ATOM     10  H   UNL     1      30.996  71.677 -15.541  1.00  0.00    +0.000 HD
ENDBRANCH   4   9
BRANCH   6  11
ATOM     11  O   UNL     1      33.002  71.155 -18.934  1.00  0.00    +0.000 OA
ATOM     12  H   UNL     1      32.360  70.486 -19.232  1.00  0.00    +0.000 HD
ENDBRANCH   6  11
BRANCH   2  13
ATOM     13  O   UNL     1      33.981  68.109 -14.738  1.00  0.00    +0.000 OA
BRANCH  13  15
ATOM     14  O   UNL     1      33.228  66.017 -14.208  1.00  0.00    +0.000 OA
ATOM     15  C   UNL     1      33.586  67.133 -13.860  1.00  0.00    +0.000 C 
BRANCH  15  29
ATOM     16  C   UNL     1      32.952  71.730 -10.644  1.00  0.00    +0.000 C 
ATOM     17  C   UNL     1      31.577  72.137  -9.988  1.00  0.00    +0.000 C 
ATOM     18  C   UNL     1      31.284  73.701  -9.921  1.00  0.00    +0.000 C 
ATOM     19  C   UNL     1      33.173  70.102 -10.455  1.00  0.00    +0.000 C 
ATOM     20  C   UNL     1      32.352  74.369  -8.986  1.00  0.00    +0.000 C 
ATOM     21  C   UNL     1      34.095  72.595 -10.024  1.00  0.00    +0.000 C 
ATOM     22  C   UNL     1      31.993  69.358 -11.101  1.00  0.00    +0.000 C 
ATOM     23  C   UNL     1      33.774  73.768  -9.072  1.00  0.00    +0.000 C 
ATOM     24  C   UNL     1      32.226  75.956  -8.830  1.00  0.00    +0.000 C 
ATOM     25  C   UNL     1      32.170  68.041 -11.924  1.00  0.00    +0.000 C 
ATOM     26  C   UNL     1      30.411  71.304 -10.569  1.00  0.00    +0.000 C 
ATOM     27  C   UNL     1      29.913  73.992  -9.231  1.00  0.00    +0.000 C 
ATOM     28  C   UNL     1      34.547  69.612 -11.008  1.00  0.00    +0.000 C 
ATOM     29  C   UNL     1      33.623  67.621 -12.369  1.00  0.00    +0.000 C 
ATOM     30  C   UNL     1      32.987  72.004 -12.185  1.00  0.00    +0.000 C 
ATOM     31  C   UNL     1      34.524  68.880 -12.348  1.00  0.00    +0.000 C 
ATOM     32  C   UNL     1      30.786  76.249  -8.302  1.00  0.00    +0.000 C 
ATOM     33  C   UNL     1      29.643  75.486  -8.992  1.00  0.00    +0.000 C 
ATOM     34  C   UNL     1      30.773  69.936 -11.087  1.00  0.00    +0.000 C 
ATOM     35  C   UNL     1      31.232  74.307 -11.337  1.00  0.00    +0.000 C 
ATOM     36  C   UNL     1      33.147  69.716  -8.947  1.00  0.00    +0.000 C 
ATOM     37  C   UNL     1      31.267  66.884 -11.349  1.00  0.00    +0.000 C 
ATOM     38  C   UNL     1      34.259  66.481 -11.528  1.00  0.00    +0.000 C 
ATOM     39  C   UNL     1      32.010  65.627 -10.839  1.00  0.00    +0.000 C 
ATOM     40  C   UNL     1      32.522  76.760 -10.123  1.00  0.00    +0.000 C 
ATOM     41  C   UNL     1      33.414  65.974 -10.367  1.00  0.00    +0.000 C 
ATOM     42  C   UNL     1      30.171  66.455 -12.350  1.00  0.00    +0.000 C 
ATOM     43  C   UNL     1      31.224  64.957  -9.702  1.00  0.00    +0.000 C 
BRANCH  32  44
ATOM     44  O   UNL     1      30.458  77.646  -8.382  1.00  0.00    +0.000 OA
ATOM     45  H   UNL     1      29.930  77.838  -7.577  1.00  0.00    +0.000 HD
ENDBRANCH  32  44
BRANCH  33  46
ATOM     46  O   UNL     1      28.473  75.602  -8.164  1.00  0.00    +0.000 OA
ATOM     47  H   UNL     1      28.817  75.689  -7.254  1.00  0.00    +0.000 HD
ENDBRANCH  33  46
BRANCH  24  48
ATOM     48  C   UNL     1      33.219  76.511  -7.757  1.00  0.00    +0.000 C 
BRANCH  48  49
ATOM     49  O   UNL     1      33.615  77.857  -8.060  1.00  0.00    +0.000 OA
ATOM     50  H   UNL     1      33.884  77.882  -8.999  1.00  0.00    +0.000 HD
ENDBRANCH  48  49
ENDBRANCH  24  48
ENDBRANCH  15  29
ENDBRANCH  13  15
ENDBRANCH   2  13
BRANCH   5  51
ATOM     51  C   UNL     1      35.575  69.946 -16.704  1.00  0.00    +0.000 C 
BRANCH  51  52
ATOM     52  O   UNL     1      35.793  71.328 -16.408  1.00  0.00    +0.000 OA
BRANCH  52  54
ATOM     53  O   UNL     1      37.806  70.440 -15.584  1.00  0.00    +0.000 OA
ATOM     54  C   UNL     1      36.963  71.581 -15.614  1.00  0.00    +0.000 C 
ATOM     55  C   UNL     1      36.486  71.822 -14.182  1.00  0.00    +0.000 C 
ATOM     56  C   UNL     1      37.675  71.915 -13.204  1.00  0.00    +0.000 C 
ATOM     57  C   UNL     1      39.089  70.706 -15.002  1.00  0.00    +0.000 C 
ATOM     58  C   UNL     1      39.049  71.803 -13.911  1.00  0.00    +0.000 C 
BRANCH  55  59
ATOM     59  O   UNL     1      35.675  73.007 -14.134  1.00  0.00    +0.000 OA
ATOM     60  H   UNL     1      36.285  73.738 -14.355  1.00  0.00    +0.000 HD
ENDBRANCH  55  59
BRANCH  56  61
ATOM     61  O   UNL     1      37.562  70.917 -12.184  1.00  0.00    +0.000 OA
ATOM     62  H   UNL     1      36.615  70.730 -12.056  1.00  0.00    +0.000 HD
ENDBRANCH  56  61
BRANCH  58  63
ATOM     63  O   UNL     1      39.260  73.109 -14.511  1.00  0.00    +0.000 OA
BRANCH  63  65
ATOM     64  O   UNL     1      41.362  73.510 -15.493  1.00  0.00    +0.000 OA
ATOM     65  C   UNL     1      40.558  73.701 -14.339  1.00  0.00    +0.000 C 
ATOM     66  C   UNL     1      41.165  73.024 -13.075  1.00  0.00    +0.000 C 
ATOM     67  C   UNL     1      42.608  72.577 -13.323  1.00  0.00    +0.000 C 
ATOM     68  C   UNL     1      42.709  73.992 -15.398  1.00  0.00    +0.000 C 
ATOM     69  C   UNL     1      43.387  73.663 -14.062  1.00  0.00    +0.000 C 
ATOM     70  C   UNL     1      42.796  75.486 -15.687  1.00  0.00    +0.000 C 
BRANCH  66  71
ATOM     71  O   UNL     1      41.149  73.950 -11.969  1.00  0.00    +0.000 OA
ATOM     72  H   UNL     1      42.041  74.348 -11.954  1.00  0.00    +0.000 HD
ENDBRANCH  66  71
BRANCH  67  73
ATOM     73  O   UNL     1      43.282  72.283 -12.088  1.00  0.00    +0.000 OA
ATOM     74  H   UNL     1      44.236  72.416 -12.268  1.00  0.00    +0.000 HD
ENDBRANCH  67  73
BRANCH  69  75
ATOM     75  O   UNL     1      44.731  73.227 -14.307  1.00  0.00    +0.000 OA
ATOM     76  H   UNL     1      45.041  73.718 -15.095  1.00  0.00    +0.000 HD
ENDBRANCH  69  75
ENDBRANCH  63  65
ENDBRANCH  58  63
BRANCH  57  77
ATOM     77  C   UNL     1      39.692  69.380 -14.523  1.00  0.00    +0.000 C 
BRANCH  77  78
ATOM     78  O   UNL     1      40.154  69.443 -13.184  1.00  0.00    +0.000 OA
ATOM     79  H   UNL     1      41.127  69.509 -13.243  1.00  0.00    +0.000 HD
ENDBRANCH  77  78
ENDBRANCH  57  77
ENDBRANCH  52  54
ENDBRANCH  51  52
ENDBRANCH   5  51
TORSDOF 22
ENDMDL
MODEL 9
REMARK VINA RESULT:    -6.298     16.563     21.350
REMARK INTER + INTRA:         -16.306
REMARK INTER:                 -12.283
REMARK INTRA:                  -4.023
REMARK UNBOUND:                -4.117
REMARK  Name = 11954171
REMARK  29 active torsions:
REMARK  status: ('A' for Active; 'I' for Inactive)
REMARK    1  A    between atoms: O_1  and  C_36
REMARK    2  A    between atoms: O_2  and  C_37
REMARK    3  A    between atoms: O_3  and  C_44
REMARK    4  A    between atoms: O_4  and  C_47
REMARK    5  A    between atoms: O_4  and  C_50
REMARK    6  A    between atoms: O_7  and  C_51
REMARK    7  A    between atoms: O_8  and  C_52
REMARK    8  A    between atoms: O_9  and  C_54
REMARK    9  A    between atoms: O_10  and  C_55
REMARK   10  A    between atoms: O_10  and  C_56
REMARK   11  A    between atoms: O_12  and  C_57
REMARK   12  A    between atoms: O_13  and  C_60
REMARK   13  A    between atoms: O_13  and  C_62
REMARK   14  A    between atoms: O_14  and  C_58
REMARK   15  A    between atoms: O_15  and  C_61
REMARK   16  A    between atoms: O_17  and  C_63
REMARK   17  A    between atoms: O_18  and  C_64
REMARK   18  A    between atoms: O_19  and  C_66
REMARK   19  A    between atoms: C_20  and  C_34
REMARK   20  A    between atoms: C_22  and  C_39
REMARK   21  A    between atoms: C_23  and  C_40
REMARK   22  A    between atoms: C_28  and  C_44
REMARK   23  A    between atoms: C_28  and  C_45
REMARK   24  A    between atoms: C_33  and  C_47
REMARK   25  A    between atoms: C_41  and  C_48
REMARK   26  A    between atoms: C_43  and  C_49
REMARK   27  A    between atoms: C_53  and  C_55
REMARK   28  A    between atoms: C_59  and  C_61
REMARK   29  A    between atoms: C_65  and  C_67
REMARK                            x       y       z     vdW  Elec       q    Type
REMARK                         _______ _______ _______ _____ _____    ______ ____
ROOT
ATOM      1  O   UNL     1      32.614  74.820  -7.889  1.00  0.00    +0.000 OA
ATOM      2  C   UNL     1      33.084  73.986  -8.946  1.00  0.00    +0.000 C 
ATOM      3  C   UNL     1      33.802  74.817 -10.042  1.00  0.00    +0.000 C 
ATOM      4  C   UNL     1      34.317  76.136  -9.466  1.00  0.00    +0.000 C 
ATOM      5  C   UNL     1      32.086  76.105  -8.245  1.00  0.00    +0.000 C 
ATOM      6  C   UNL     1      33.148  76.984  -8.940  1.00  0.00    +0.000 C 
ENDROOT
BRANCH   3   7
ATOM      7  O   UNL     1      34.919  74.113 -10.609  1.00  0.00    +0.000 OA
ATOM      8  H   UNL     1      34.559  73.332 -11.062  1.00  0.00    +0.000 HD
ENDBRANCH   3   7
BRANCH   4   9
ATOM      9  O   UNL     1      35.024  76.862 -10.485  1.00  0.00    +0.000 OA
ATOM     10  H   UNL     1      34.368  77.476 -10.875  1.00  0.00    +0.000 HD
ENDBRANCH   4   9
BRANCH   6  11
ATOM     11  O   UNL     1      33.623  77.977  -8.011  1.00  0.00    +0.000 OA
ATOM     12  H   UNL     1      32.848  78.407  -7.607  1.00  0.00    +0.000 HD
ENDBRANCH   6  11
BRANCH   2  13
ATOM     13  O   UNL     1      32.057  73.192  -9.593  1.00  0.00    +0.000 OA
BRANCH  13  15
ATOM     14  O   UNL     1      33.396  71.345  -9.741  1.00  0.00    +0.000 OA
ATOM     15  C   UNL     1      32.280  71.844  -9.697  1.00  0.00    +0.000 C 
BRANCH  15  29
ATOM     16  C   UNL     1      26.665  72.425  -9.617  1.00  0.00    +0.000 C 
ATOM     17  C   UNL     1      25.800  72.590 -10.924  1.00  0.00    +0.000 C 
ATOM     18  C   UNL     1      24.551  73.571 -10.802  1.00  0.00    +0.000 C 
ATOM     19  C   UNL     1      27.788  71.236  -9.867  1.00  0.00    +0.000 C 
ATOM     20  C   UNL     1      23.541  72.967  -9.763  1.00  0.00    +0.000 C 
ATOM     21  C   UNL     1      25.720  72.150  -8.404  1.00  0.00    +0.000 C 
ATOM     22  C   UNL     1      28.656  71.614 -11.078  1.00  0.00    +0.000 C 
ATOM     23  C   UNL     1      24.186  72.248  -8.556  1.00  0.00    +0.000 C 
ATOM     24  C   UNL     1      22.233  73.847  -9.491  1.00  0.00    +0.000 C 
ATOM     25  C   UNL     1      30.199  71.376 -11.122  1.00  0.00    +0.000 C 
ATOM     26  C   UNL     1      26.693  72.862 -12.157  1.00  0.00    +0.000 C 
ATOM     27  C   UNL     1      23.751  73.640 -12.142  1.00  0.00    +0.000 C 
ATOM     28  C   UNL     1      28.649  70.944  -8.599  1.00  0.00    +0.000 C 
ATOM     29  C   UNL     1      30.945  71.023  -9.778  1.00  0.00    +0.000 C 
ATOM     30  C   UNL     1      27.467  73.721  -9.258  1.00  0.00    +0.000 C 
ATOM     31  C   UNL     1      30.071  71.502  -8.593  1.00  0.00    +0.000 C 
ATOM     32  C   UNL     1      21.531  74.058 -10.870  1.00  0.00    +0.000 C 
ATOM     33  C   UNL     1      22.446  74.446 -12.044  1.00  0.00    +0.000 C 
ATOM     34  C   UNL     1      28.095  72.313 -12.088  1.00  0.00    +0.000 C 
ATOM     35  C   UNL     1      25.012  75.001 -10.459  1.00  0.00    +0.000 C 
ATOM     36  C   UNL     1      27.093  69.894 -10.241  1.00  0.00    +0.000 C 
ATOM     37  C   UNL     1      30.609  70.518 -12.380  1.00  0.00    +0.000 C 
ATOM     38  C   UNL     1      31.315  69.524  -9.612  1.00  0.00    +0.000 C 
ATOM     39  C   UNL     1      31.294  69.163 -12.088  1.00  0.00    +0.000 C 
ATOM     40  C   UNL     1      22.500  75.202  -8.785  1.00  0.00    +0.000 C 
ATOM     41  C   UNL     1      30.859  68.608 -10.739  1.00  0.00    +0.000 C 
ATOM     42  C   UNL     1      31.479  71.323 -13.370  1.00  0.00    +0.000 C 
ATOM     43  C   UNL     1      30.981  68.148 -13.199  1.00  0.00    +0.000 C 
BRANCH  32  44
ATOM     44  O   UNL     1      20.500  75.057 -10.800  1.00  0.00    +0.000 OA
ATOM     45  H   UNL     1      19.727  74.609 -10.393  1.00  0.00    +0.000 HD
ENDBRANCH  32  44
BRANCH  33  46
ATOM     46  O   UNL     1      21.706  74.248 -13.261  1.00  0.00    +0.000 OA
ATOM     47  H   UNL     1      21.540  73.286 -13.301  1.00  0.00    +0.000 HD
ENDBRANCH  33  46
BRANCH  24  48
ATOM     48  C   UNL     1      21.212  73.094  -8.578  1.00  0.00    +0.000 C 
BRANCH  48  49
ATOM     49  O   UNL     1      20.164  73.969  -8.136  1.00  0.00    +0.000 OA
ATOM     50  H   UNL     1      20.102  73.892  -7.165  1.00  0.00    +0.000 HD
ENDBRANCH  48  49
ENDBRANCH  24  48
ENDBRANCH  15  29
ENDBRANCH  13  15
ENDBRANCH   2  13
BRANCH   5  51
ATOM     51  C   UNL     1      30.786  76.000  -9.064  1.00  0.00    +0.000 C 
BRANCH  51  52
ATOM     52  O   UNL     1      30.927  76.327 -10.449  1.00  0.00    +0.000 OA
BRANCH  52  54
ATOM     53  O   UNL     1      29.010  77.593  -9.962  1.00  0.00    +0.000 OA
ATOM     54  C   UNL     1      30.054  77.376 -10.896  1.00  0.00    +0.000 C 
ATOM     55  C   UNL     1      29.402  76.892 -12.191  1.00  0.00    +0.000 C 
ATOM     56  C   UNL     1      28.298  77.863 -12.659  1.00  0.00    +0.000 C 
ATOM     57  C   UNL     1      28.245  78.774 -10.238  1.00  0.00    +0.000 C 
ATOM     58  C   UNL     1      28.163  79.108 -11.747  1.00  0.00    +0.000 C 
BRANCH  55  59
ATOM     59  O   UNL     1      30.407  76.714 -13.203  1.00  0.00    +0.000 OA
ATOM     60  H   UNL     1      30.147  75.897 -13.673  1.00  0.00    +0.000 HD
ENDBRANCH  55  59
BRANCH  56  61
ATOM     61  O   UNL     1      27.043  77.182 -12.756  1.00  0.00    +0.000 OA
ATOM     62  H   UNL     1      26.425  77.767 -13.229  1.00  0.00    +0.000 HD
ENDBRANCH  56  61
BRANCH  58  63
ATOM     63  O   UNL     1      29.271  79.965 -12.128  1.00  0.00    +0.000 OA
BRANCH  63  65
ATOM     64  O   UNL     1      29.278  82.299 -11.825  1.00  0.00    +0.000 OA
ATOM     65  C   UNL     1      29.593  81.045 -11.238  1.00  0.00    +0.000 C 
ATOM     66  C   UNL     1      31.113  80.900 -10.931  1.00  0.00    +0.000 C 
ATOM     67  C   UNL     1      31.839  82.240 -11.064  1.00  0.00    +0.000 C 
ATOM     68  C   UNL     1      29.637  83.454 -11.053  1.00  0.00    +0.000 C 
ATOM     69  C   UNL     1      31.027  83.357 -10.411  1.00  0.00    +0.000 C 
ATOM     70  C   UNL     1      28.584  83.777 -10.000  1.00  0.00    +0.000 C 
BRANCH  66  71
ATOM     71  O   UNL     1      31.295  80.404  -9.588  1.00  0.00    +0.000 OA
ATOM     72  H   UNL     1      30.816  81.034  -9.015  1.00  0.00    +0.000 HD
ENDBRANCH  66  71
BRANCH  67  73
ATOM     73  O   UNL     1      33.137  82.193 -10.451  1.00  0.00    +0.000 OA
ATOM     74  H   UNL     1      32.985  82.337  -9.494  1.00  0.00    +0.000 HD
ENDBRANCH  67  73
BRANCH  69  75
ATOM     75  O   UNL     1      31.705  84.612 -10.559  1.00  0.00    +0.000 OA
ATOM     76  H   UNL     1      31.960  84.679 -11.501  1.00  0.00    +0.000 HD
ENDBRANCH  69  75
ENDBRANCH  63  65
ENDBRANCH  58  63
BRANCH  57  77
ATOM     77  C   UNL     1      26.877  78.639  -9.559  1.00  0.00    +0.000 C 
BRANCH  77  78
ATOM     78  O   UNL     1      26.979  78.473  -8.154  1.00  0.00    +0.000 OA
ATOM     79  H   UNL     1      26.756  79.343  -7.768  1.00  0.00    +0.000 HD
ENDBRANCH  77  78
ENDBRANCH  57  77
ENDBRANCH  52  54
ENDBRANCH  51  52
ENDBRANCH   5  51
TORSDOF 22
ENDMDL
