MODEL 1
REMARK VINA RESULT:   -13.678      0.000      0.000
REMARK INTER + INTRA:         -14.240
REMARK INTER:                 -26.473
REMARK INTRA:                  12.232
REMARK UNBOUND:                12.232
REMARK  Name = 11954171
REMARK  29 active torsions:
REMARK  status: ('A' for Active; 'I' for Inactive)
REMARK    1  A    between atoms: O_1  and  C_36
REMARK    2  A    between atoms: O_2  and  C_37
REMARK    3  A    between atoms: O_3  and  C_44
REMARK    4  A    between atoms: O_4  and  C_47
REMARK    5  A    between atoms: O_4  and  C_50
REMARK    6  A    between atoms: O_7  and  C_51
REMARK    7  A    between atoms: O_8  and  C_52
REMARK    8  A    between atoms: O_9  and  C_54
REMARK    9  A    between atoms: O_10  and  C_55
REMARK   10  A    between atoms: O_10  and  C_56
REMARK   11  A    between atoms: O_12  and  C_57
REMARK   12  A    between atoms: O_13  and  C_60
REMARK   13  A    between atoms: O_13  and  C_62
REMARK   14  A    between atoms: O_14  and  C_58
REMARK   15  A    between atoms: O_15  and  C_61
REMARK   16  A    between atoms: O_17  and  C_63
REMARK   17  A    between atoms: O_18  and  C_64
REMARK   18  A    between atoms: O_19  and  C_66
REMARK   19  A    between atoms: C_20  and  C_34
REMARK   20  A    between atoms: C_22  and  C_39
REMARK   21  A    between atoms: C_23  and  C_40
REMARK   22  A    between atoms: C_28  and  C_44
REMARK   23  A    between atoms: C_28  and  C_45
REMARK   24  A    between atoms: C_33  and  C_47
REMARK   25  A    between atoms: C_41  and  C_48
REMARK   26  A    between atoms: C_43  and  C_49
REMARK   27  A    between atoms: C_53  and  C_55
REMARK   28  A    between atoms: C_59  and  C_61
REMARK   29  A    between atoms: C_65  and  C_67
REMARK                            x       y       z     vdW  Elec       q    Type
REMARK                         _______ _______ _______ _____ _____    ______ ____
ROOT
ATOM      1  O   UNL     1       3.464   7.919   7.292  1.00  0.00    -0.331 OA
ATOM      2  C   UNL     1       4.321   8.101   6.810  1.00  0.00    +0.234 C 
ATOM      3  C   UNL     1       5.100   8.489   7.304  1.00  0.00    +0.146 C 
ATOM      4  C   UNL     1       5.021   8.693   8.279  1.00  0.00    +0.115 C 
ATOM      5  C   UNL     1       3.386   8.123   8.267  1.00  0.00    +0.114 C 
ATOM      6  C   UNL     1       4.164   8.510   8.761  1.00  0.00    +0.112 C 
ENDROOT
BRANCH   3   7
ATOM      7  O   UNL     1       5.957   8.671   6.822  1.00  0.00    -0.383 OA
ATOM      8  H   UNL     1       6.788   8.294   7.151  1.00  0.00    +0.000 HD
ENDBRANCH   3   7
BRANCH   4   9
ATOM      9  O   UNL     1       5.800   9.080   8.773  1.00  0.00    -0.386 OA
ATOM     10  H   UNL     1       5.724   9.278   9.720  1.00  0.00    +0.000 HD
ENDBRANCH   4   9
BRANCH   6  11
ATOM     11  O   UNL     1       4.086   8.715   9.737  1.00  0.00    -0.386 OA
ATOM     12  H   UNL     1       3.382   9.302  10.054  1.00  0.00    +0.000 HD
ENDBRANCH   6  11
BRANCH   2  13
ATOM     13  O   UNL     1       4.400   7.897   5.834  1.00  0.00    -0.432 OA
BRANCH  13  15
ATOM     14  O   UNL     1       3.558   9.334   5.360  1.00  0.00    -0.250 OA
ATOM     15  C   UNL     1       3.837   8.392   5.173  1.00  0.00    +0.316 C 
BRANCH  15  29
ATOM     16  C   UNL     1       0.619   7.162   3.870  1.00  0.00    -0.019 C 
ATOM     17  C   UNL     1       0.343   6.715   3.019  1.00  0.00    -0.026 C 
ATOM     18  C   UNL     1      -0.650   6.445   2.856  1.00  0.00    -0.023 C 
ATOM     19  C   UNL     1       1.576   7.415   4.013  1.00  0.00    -0.005 C 
ATOM     20  C   UNL     1      -1.364   6.643   3.588  1.00  0.00    -0.025 C 
ATOM     21  C   UNL     1      -0.077   7.369   4.616  1.00  0.00    -0.046 C 
ATOM     22  C   UNL     1       2.256   7.222   3.306  1.00  0.00    -0.063 C 
ATOM     23  C   UNL     1      -1.075   7.108   4.474  1.00  0.00    -0.049 C 
ATOM     24  C   UNL     1      -2.404   6.371   3.440  1.00  0.00    +0.023 C 
ATOM     25  C   UNL     1       3.256   7.480   3.441  1.00  0.00    -0.001 C 
ATOM     26  C   UNL     1       1.023   6.522   2.312  1.00  0.00    -0.031 C 
ATOM     27  C   UNL     1      -0.927   5.962   1.924  1.00  0.00    -0.018 C 
ATOM     28  C   UNL     1       1.849   7.880   4.905  1.00  0.00    -0.042 C 
ATOM     29  C   UNL     1       3.552   7.945   4.324  1.00  0.00    +0.075 C 
ATOM     30  C   UNL     1       0.556   7.569   4.781  1.00  0.00    -0.058 C 
ATOM     31  C   UNL     1       2.844   8.147   5.062  1.00  0.00    -0.036 C 
ATOM     32  C   UNL     1      -2.704   5.887   2.517  1.00  0.00    +0.089 C 
ATOM     33  C   UNL     1      -1.960   5.681   1.754  1.00  0.00    +0.082 C 
ATOM     34  C   UNL     1       1.979   6.775   2.455  1.00  0.00    -0.084 C 
ATOM     35  C   UNL     1       0.035   6.255   2.152  1.00  0.00    -0.059 C 
ATOM     36  C   UNL     1       1.181   7.735   4.875  1.00  0.00    -0.055 C 
ATOM     37  C   UNL     1       3.975   7.261   2.659  1.00  0.00    -0.034 C 
ATOM     38  C   UNL     1       4.589   8.224   4.487  1.00  0.00    -0.036 C 
ATOM     39  C   UNL     1       5.017   7.529   2.799  1.00  0.00    -0.041 C 
ATOM     40  C   UNL     1      -2.633   6.742   4.340  1.00  0.00    -0.055 C 
ATOM     41  C   UNL     1       5.326   8.014   3.720  1.00  0.00    -0.049 C 
ATOM     42  C   UNL     1       3.680   6.813   1.815  1.00  0.00    -0.062 C 
ATOM     43  C   UNL     1       5.689   7.331   2.085  1.00  0.00    -0.062 C 
BRANCH  32  44
ATOM     44  O   UNL     1      -3.660   5.632   2.370  1.00  0.00    -0.389 OA
ATOM     45  H   UNL     1      -3.903   5.081   1.609  1.00  0.00    +0.000 HD
ENDBRANCH  32  44
BRANCH  33  46
ATOM     46  O   UNL     1      -2.227   5.235   0.899  1.00  0.00    -0.389 OA
ATOM     47  H   UNL     1      -2.784   5.707   0.260  1.00  0.00    +0.000 HD
ENDBRANCH  33  46
BRANCH  24  48
ATOM     48  C   UNL     1      -3.348   6.338   3.769  1.00  0.00    +0.052 C 
BRANCH  48  49
ATOM     49  O   UNL     1      -3.587   6.761   4.643  1.00  0.00    -0.394 OA
ATOM     50  H   UNL     1      -4.067   7.604   4.658  1.00  0.00    +0.000 HD
ENDBRANCH  48  49
ENDBRANCH  24  48
ENDBRANCH  15  29
ENDBRANCH  13  15
ENDBRANCH   2  13
BRANCH   5  51
ATOM     51  C   UNL     1       2.529   7.941   8.749  1.00  0.00    +0.080 C 
BRANCH  51  52
ATOM     52  O   UNL     1       2.110   7.034   8.698  1.00  0.00    -0.346 OA
BRANCH  52  54
ATOM     53  O   UNL     1       0.514   7.706   8.758  1.00  0.00    -0.341 OA
ATOM     54  C   UNL     1       1.126   6.946   8.538  1.00  0.00    +0.188 C 
ATOM     55  C   UNL     1       0.755   6.099   8.159  1.00  0.00    +0.134 C 
ATOM     56  C   UNL     1      -0.228   6.011   7.999  1.00  0.00    +0.114 C 
ATOM     57  C   UNL     1      -0.469   7.618   8.598  1.00  0.00    +0.113 C 
ATOM     58  C   UNL     1      -0.840   6.771   8.219  1.00  0.00    +0.118 C 
BRANCH  55  59
ATOM     59  O   UNL     1       1.367   5.339   7.939  1.00  0.00    -0.384 OA
ATOM     60  H   UNL     1       1.072   4.636   7.340  1.00  0.00    +0.000 HD
ENDBRANCH  55  59
BRANCH  56  61
ATOM     61  O   UNL     1      -0.599   5.163   7.620  1.00  0.00    -0.386 OA
ATOM     62  H   UNL     1      -0.111   4.686   6.930  1.00  0.00    +0.000 HD
ENDBRANCH  56  61
BRANCH  58  63
ATOM     63  O   UNL     1      -1.823   6.683   8.059  1.00  0.00    -0.340 OA
BRANCH  63  65
ATOM     64  O   UNL     1      -2.082   6.093   9.667  1.00  0.00    -0.343 OA
ATOM     65  C   UNL     1      -2.397   6.206   8.725  1.00  0.00    +0.188 C 
ATOM     66  C   UNL     1      -3.287   5.842   8.448  1.00  0.00    +0.134 C 
ATOM     67  C   UNL     1      -3.860   5.365   9.114  1.00  0.00    +0.114 C 
ATOM     68  C   UNL     1      -2.656   5.616  10.333  1.00  0.00    +0.087 C 
ATOM     69  C   UNL     1      -3.545   5.252  10.056  1.00  0.00    +0.109 C 
ATOM     70  C   UNL     1      -2.340   5.503  11.275  1.00  0.00    -0.036 C 
BRANCH  66  71
ATOM     71  O   UNL     1      -3.602   5.954   7.506  1.00  0.00    -0.384 OA
ATOM     72  H   UNL     1      -3.425   5.263   6.849  1.00  0.00    +0.000 HD
ENDBRANCH  66  71
BRANCH  67  73
ATOM     73  O   UNL     1      -4.750   5.000   8.837  1.00  0.00    -0.386 OA
ATOM     74  H   UNL     1      -5.011   4.105   9.103  1.00  0.00    +0.000 HD
ENDBRANCH  67  73
BRANCH  69  75
ATOM     75  O   UNL     1      -4.119   4.775  10.722  1.00  0.00    -0.387 OA
ATOM     76  H   UNL     1      -4.110   3.805  10.764  1.00  0.00    +0.000 HD
ENDBRANCH  69  75
ENDBRANCH  63  65
ENDBRANCH  58  63
BRANCH  57  77
ATOM     77  C   UNL     1      -1.081   8.378   8.818  1.00  0.00    +0.073 C 
BRANCH  77  78
ATOM     78  O   UNL     1      -0.846   9.012   9.555  1.00  0.00    -0.392 OA
ATOM     79  H   UNL     1      -1.462   9.721   9.798  1.00  0.00    +0.000 HD
ENDBRANCH  77  78
ENDBRANCH  57  77
ENDBRANCH  52  54
ENDBRANCH  51  52
ENDBRANCH   5  51
TORSDOF 22
ENDMDL
MODEL 2
REMARK VINA RESULT:   -13.577      1.400      2.627
REMARK INTER + INTRA:         -14.044
REMARK INTER:                 -27.024
REMARK INTRA:                  12.980
REMARK UNBOUND:                12.232
REMARK  Name = 11954171
REMARK  29 active torsions:
REMARK  status: ('A' for Active; 'I' for Inactive)
REMARK    1  A    between atoms: O_1  and  C_36
REMARK    2  A    between atoms: O_2  and  C_37
REMARK    3  A    between atoms: O_3  and  C_44
REMARK    4  A    between atoms: O_4  and  C_47
REMARK    5  A    between atoms: O_4  and  C_50
REMARK    6  A    between atoms: O_7  and  C_51
REMARK    7  A    between atoms: O_8  and  C_52
REMARK    8  A    between atoms: O_9  and  C_54
REMARK    9  A    between atoms: O_10  and  C_55
REMARK   10  A    between atoms: O_10  and  C_56
REMARK   11  A    between atoms: O_12  and  C_57
REMARK   12  A    between atoms: O_13  and  C_60
REMARK   13  A    between atoms: O_13  and  C_62
REMARK   14  A    between atoms: O_14  and  C_58
REMARK   15  A    between atoms: O_15  and  C_61
REMARK   16  A    between atoms: O_17  and  C_63
REMARK   17  A    between atoms: O_18  and  C_64
REMARK   18  A    between atoms: O_19  and  C_66
REMARK   19  A    between atoms: C_20  and  C_34
REMARK   20  A    between atoms: C_22  and  C_39
REMARK   21  A    between atoms: C_23  and  C_40
REMARK   22  A    between atoms: C_28  and  C_44
REMARK   23  A    between atoms: C_28  and  C_45
REMARK   24  A    between atoms: C_33  and  C_47
REMARK   25  A    between atoms: C_41  and  C_48
REMARK   26  A    between atoms: C_43  and  C_49
REMARK   27  A    between atoms: C_53  and  C_55
REMARK   28  A    between atoms: C_59  and  C_61
REMARK   29  A    between atoms: C_65  and  C_67
REMARK                            x       y       z     vdW  Elec       q    Type
REMARK                         _______ _______ _______ _____ _____    ______ ____
ROOT
ATOM      1  O   UNL     1       3.423   8.432   9.508  1.00  0.00    -0.331 OA
ATOM      2  C   UNL     1       4.332   8.849   9.483  1.00  0.00    +0.234 C 
ATOM      3  C   UNL     1       4.749   9.188  10.326  1.00  0.00    +0.146 C 
ATOM      4  C   UNL     1       4.258   9.111  11.194  1.00  0.00    +0.115 C 
ATOM      5  C   UNL     1       2.931   8.355  10.375  1.00  0.00    +0.114 C 
ATOM      6  C   UNL     1       3.349   8.695  11.218  1.00  0.00    +0.112 C 
ENDROOT
BRANCH   3   7
ATOM      7  O   UNL     1       5.658   9.604  10.302  1.00  0.00    -0.383 OA
ATOM      8  H   UNL     1       6.373   9.240  10.847  1.00  0.00    +0.000 HD
ENDBRANCH   3   7
BRANCH   4   9
ATOM      9  O   UNL     1       4.675   9.450  12.037  1.00  0.00    -0.386 OA
ATOM     10  H   UNL     1       4.345  10.265  12.448  1.00  0.00    +0.000 HD
ENDBRANCH   4   9
BRANCH   6  11
ATOM     11  O   UNL     1       2.857   8.618  12.086  1.00  0.00    -0.386 OA
ATOM     12  H   UNL     1       3.151   9.128  12.857  1.00  0.00    +0.000 HD
ENDBRANCH   6  11
BRANCH   2  13
ATOM     13  O   UNL     1       4.823   8.926   8.616  1.00  0.00    -0.432 OA
BRANCH  13  15
ATOM     14  O   UNL     1       3.829  10.239   8.079  1.00  0.00    -0.250 OA
ATOM     15  C   UNL     1       4.443   9.477   7.873  1.00  0.00    +0.316 C 
BRANCH  15  29
ATOM     16  C   UNL     1       2.613   7.977   5.051  1.00  0.00    -0.019 C 
ATOM     17  C   UNL     1       2.854   7.768   4.103  1.00  0.00    -0.026 C 
ATOM     18  C   UNL     1       2.161   7.331   3.459  1.00  0.00    -0.023 C 
ATOM     19  C   UNL     1       3.289   8.397   5.657  1.00  0.00    -0.005 C 
ATOM     20  C   UNL     1       1.205   7.108   3.808  1.00  0.00    -0.025 C 
ATOM     21  C   UNL     1       1.664   7.763   5.421  1.00  0.00    -0.046 C 
ATOM     22  C   UNL     1       4.205   8.608   5.316  1.00  0.00    -0.063 C 
ATOM     23  C   UNL     1       0.955   7.326   4.796  1.00  0.00    -0.049 C 
ATOM     24  C   UNL     1       0.466   6.653   3.156  1.00  0.00    +0.023 C 
ATOM     25  C   UNL     1       4.918   9.045   5.936  1.00  0.00    -0.001 C 
ATOM     26  C   UNL     1       3.769   7.980   3.762  1.00  0.00    -0.031 C 
ATOM     27  C   UNL     1       2.444   7.114   2.435  1.00  0.00    -0.018 C 
ATOM     28  C   UNL     1       3.024   8.608   6.642  1.00  0.00    -0.042 C 
ATOM     29  C   UNL     1       4.676   9.265   6.924  1.00  0.00    +0.075 C 
ATOM     30  C   UNL     1       2.073   8.048   5.890  1.00  0.00    -0.058 C 
ATOM     31  C   UNL     1       3.722   9.045   7.280  1.00  0.00    -0.036 C 
ATOM     32  C   UNL     1       0.727   6.427   2.128  1.00  0.00    +0.089 C 
ATOM     33  C   UNL     1       1.723   6.659   1.765  1.00  0.00    +0.082 C 
ATOM     34  C   UNL     1       4.444   8.399   4.367  1.00  0.00    -0.084 C 
ATOM     35  C   UNL     1       3.078   7.545   3.124  1.00  0.00    -0.059 C 
ATOM     36  C   UNL     1       2.514   8.322   6.286  1.00  0.00    -0.055 C 
ATOM     37  C   UNL     1       5.905   9.265   5.542  1.00  0.00    -0.034 C 
ATOM     38  C   UNL     1       5.403   9.721   7.588  1.00  0.00    -0.036 C 
ATOM     39  C   UNL     1       6.650   9.720   6.187  1.00  0.00    -0.041 C 
ATOM     40  C   UNL     1      -0.199   6.653   3.904  1.00  0.00    -0.055 C 
ATOM     41  C   UNL     1       6.397   9.950   7.217  1.00  0.00    -0.049 C 
ATOM     42  C   UNL     1       6.128   9.049   4.591  1.00  0.00    -0.062 C 
ATOM     43  C   UNL     1       7.562   9.927   5.835  1.00  0.00    -0.062 C 
BRANCH  32  44
ATOM     44  O   UNL     1       0.054   6.007   1.519  1.00  0.00    -0.389 OA
ATOM     45  H   UNL     1      -0.877   5.960   1.784  1.00  0.00    +0.000 HD
ENDBRANCH  32  44
BRANCH  33  46
ATOM     46  O   UNL     1       1.973   6.454   0.818  1.00  0.00    -0.389 OA
ATOM     47  H   UNL     1       1.629   5.656   0.388  1.00  0.00    +0.000 HD
ENDBRANCH  33  46
BRANCH  24  48
ATOM     48  C   UNL     1      -0.453   6.290   3.007  1.00  0.00    +0.052 C 
BRANCH  48  49
ATOM     49  O   UNL     1      -1.223   6.645   3.537  1.00  0.00    -0.394 OA
ATOM     50  H   UNL     1      -2.087   6.768   3.114  1.00  0.00    +0.000 HD
ENDBRANCH  48  49
ENDBRANCH  24  48
ENDBRANCH  15  29
ENDBRANCH  13  15
ENDBRANCH   2  13
BRANCH   5  51
ATOM     51  C   UNL     1       2.023   7.939  10.400  1.00  0.00    +0.080 C 
BRANCH  51  52
ATOM     52  O   UNL     1       1.798   7.191   9.775  1.00  0.00    -0.346 OA
BRANCH  52  54
ATOM     53  O   UNL     1       0.236   7.888   9.503  1.00  0.00    -0.341 OA
ATOM     54  C   UNL     1       0.903   7.164   9.329  1.00  0.00    +0.188 C 
ATOM     55  C   UNL     1       0.676   6.413   8.709  1.00  0.00    +0.134 C 
ATOM     56  C   UNL     1      -0.219   6.386   8.263  1.00  0.00    +0.114 C 
ATOM     57  C   UNL     1      -0.659   7.861   9.057  1.00  0.00    +0.113 C 
ATOM     58  C   UNL     1      -0.886   7.110   8.437  1.00  0.00    +0.118 C 
BRANCH  55  59
ATOM     59  O   UNL     1       1.344   5.689   8.535  1.00  0.00    -0.384 OA
ATOM     60  H   UNL     1       1.678   5.544   7.636  1.00  0.00    +0.000 HD
ENDBRANCH  55  59
BRANCH  56  61
ATOM     61  O   UNL     1      -0.446   5.635   7.643  1.00  0.00    -0.386 OA
ATOM     62  H   UNL     1       0.003   5.561   6.787  1.00  0.00    +0.000 HD
ENDBRANCH  56  61
BRANCH  58  63
ATOM     63  O   UNL     1      -1.781   7.083   7.991  1.00  0.00    -0.340 OA
BRANCH  63  65
ATOM     64  O   UNL     1      -2.434   6.169   9.310  1.00  0.00    -0.343 OA
ATOM     65  C   UNL     1      -2.517   6.529   8.380  1.00  0.00    +0.188 C 
ATOM     66  C   UNL     1      -3.335   6.335   7.840  1.00  0.00    +0.134 C 
ATOM     67  C   UNL     1      -4.071   5.781   8.229  1.00  0.00    +0.114 C 
ATOM     68  C   UNL     1      -3.170   5.615   9.699  1.00  0.00    +0.087 C 
ATOM     69  C   UNL     1      -3.989   5.421   9.159  1.00  0.00    +0.109 C 
ATOM     70  C   UNL     1      -3.087   5.256  10.628  1.00  0.00    -0.036 C 
BRANCH  66  71
ATOM     71  O   UNL     1      -3.418   6.695   6.911  1.00  0.00    -0.384 OA
ATOM     72  H   UNL     1      -4.288   6.739   6.484  1.00  0.00    +0.000 HD
ENDBRANCH  66  71
BRANCH  67  73
ATOM     73  O   UNL     1      -4.890   5.587   7.689  1.00  0.00    -0.386 OA
ATOM     74  H   UNL     1      -5.617   5.075   8.077  1.00  0.00    +0.000 HD
ENDBRANCH  67  73
BRANCH  69  75
ATOM     75  O   UNL     1      -4.724   4.867   9.548  1.00  0.00    -0.387 OA
ATOM     76  H   UNL     1      -5.192   5.170  10.342  1.00  0.00    +0.000 HD
ENDBRANCH  69  75
ENDBRANCH  63  65
ENDBRANCH  58  63
BRANCH  57  77
ATOM     77  C   UNL     1      -1.326   8.585   9.231  1.00  0.00    +0.073 C 
BRANCH  77  78
ATOM     78  O   UNL     1      -1.419   8.969  10.150  1.00  0.00    -0.392 OA
ATOM     79  H   UNL     1      -0.786   9.634  10.464  1.00  0.00    +0.000 HD
ENDBRANCH  77  78
ENDBRANCH  57  77
ENDBRANCH  52  54
ENDBRANCH  51  52
ENDBRANCH   5  51
TORSDOF 22
ENDMDL
MODEL 3
REMARK VINA RESULT:   -13.150      2.516      6.620
REMARK INTER + INTRA:         -13.217
REMARK INTER:                 -27.073
REMARK INTRA:                  13.856
REMARK UNBOUND:                12.232
REMARK  Name = 11954171
REMARK  29 active torsions:
REMARK  status: ('A' for Active; 'I' for Inactive)
REMARK    1  A    between atoms: O_1  and  C_36
REMARK    2  A    between atoms: O_2  and  C_37
REMARK    3  A    between atoms: O_3  and  C_44
REMARK    4  A    between atoms: O_4  and  C_47
REMARK    5  A    between atoms: O_4  and  C_50
REMARK    6  A    between atoms: O_7  and  C_51
REMARK    7  A    between atoms: O_8  and  C_52
REMARK    8  A    between atoms: O_9  and  C_54
REMARK    9  A    between atoms: O_10  and  C_55
REMARK   10  A    between atoms: O_10  and  C_56
REMARK   11  A    between atoms: O_12  and  C_57
REMARK   12  A    between atoms: O_13  and  C_60
REMARK   13  A    between atoms: O_13  and  C_62
REMARK   14  A    between atoms: O_14  and  C_58
REMARK   15  A    between atoms: O_15  and  C_61
REMARK   16  A    between atoms: O_17  and  C_63
REMARK   17  A    between atoms: O_18  and  C_64
REMARK   18  A    between atoms: O_19  and  C_66
REMARK   19  A    between atoms: C_20  and  C_34
REMARK   20  A    between atoms: C_22  and  C_39
REMARK   21  A    between atoms: C_23  and  C_40
REMARK   22  A    between atoms: C_28  and  C_44
REMARK   23  A    between atoms: C_28  and  C_45
REMARK   24  A    between atoms: C_33  and  C_47
REMARK   25  A    between atoms: C_41  and  C_48
REMARK   26  A    between atoms: C_43  and  C_49
REMARK   27  A    between atoms: C_53  and  C_55
REMARK   28  A    between atoms: C_59  and  C_61
REMARK   29  A    between atoms: C_65  and  C_67
REMARK                            x       y       z     vdW  Elec       q    Type
REMARK                         _______ _______ _______ _____ _____    ______ ____
ROOT
ATOM      1  O   UNL     1       0.471   6.794   4.870  1.00  0.00    -0.331 OA
ATOM      2  C   UNL     1       1.307   6.768   4.321  1.00  0.00    +0.234 C 
ATOM      3  C   UNL     1       1.254   6.607   3.336  1.00  0.00    +0.146 C 
ATOM      4  C   UNL     1       0.365   6.472   2.899  1.00  0.00    +0.115 C 
ATOM      5  C   UNL     1      -0.418   6.659   4.432  1.00  0.00    +0.114 C 
ATOM      6  C   UNL     1      -0.471   6.498   3.447  1.00  0.00    +0.112 C 
ENDROOT
BRANCH   3   7
ATOM      7  O   UNL     1       2.090   6.580   2.788  1.00  0.00    -0.383 OA
ATOM      8  H   UNL     1       2.772   5.916   2.974  1.00  0.00    +0.000 HD
ENDBRANCH   3   7
BRANCH   4   9
ATOM      9  O   UNL     1       0.312   6.310   1.913  1.00  0.00    -0.386 OA
ATOM     10  H   UNL     1      -0.412   5.778   1.547  1.00  0.00    +0.000 HD
ENDBRANCH   4   9
BRANCH   6  11
ATOM     11  O   UNL     1      -1.360   6.363   3.009  1.00  0.00    -0.386 OA
ATOM     12  H   UNL     1      -1.614   5.483   2.688  1.00  0.00    +0.000 HD
ENDBRANCH   6  11
BRANCH   2  13
ATOM     13  O   UNL     1       2.196   6.903   4.759  1.00  0.00    -0.432 OA
BRANCH  13  15
ATOM     14  O   UNL     1       1.508   8.102   5.801  1.00  0.00    -0.250 OA
ATOM     15  C   UNL     1       2.283   7.530   5.533  1.00  0.00    +0.316 C 
BRANCH  15  29
ATOM     16  C   UNL     1       5.285   9.646   5.276  1.00  0.00    -0.019 C 
ATOM     17  C   UNL     1       6.144   9.694   5.787  1.00  0.00    -0.026 C 
ATOM     18  C   UNL     1       6.877  10.390   5.536  1.00  0.00    -0.023 C 
ATOM     19  C   UNL     1       4.590   8.972   5.529  1.00  0.00    -0.005 C 
ATOM     20  C   UNL     1       6.713  11.045   4.743  1.00  0.00    -0.025 C 
ATOM     21  C   UNL     1       5.100  10.290   4.479  1.00  0.00    -0.046 C 
ATOM     22  C   UNL     1       4.754   8.347   6.292  1.00  0.00    -0.063 C 
ATOM     23  C   UNL     1       5.819  10.995   4.210  1.00  0.00    -0.049 C 
ATOM     24  C   UNL     1       7.462  11.779   4.462  1.00  0.00    +0.023 C 
ATOM     25  C   UNL     1       4.040   7.640   6.566  1.00  0.00    -0.001 C 
ATOM     26  C   UNL     1       6.307   9.069   6.550  1.00  0.00    -0.031 C 
ATOM     27  C   UNL     1       7.801  10.424   6.104  1.00  0.00    -0.018 C 
ATOM     28  C   UNL     1       3.701   8.934   4.987  1.00  0.00    -0.042 C 
ATOM     29  C   UNL     1       3.143   7.584   6.039  1.00  0.00    +0.075 C 
ATOM     30  C   UNL     1       4.583   9.857   4.596  1.00  0.00    -0.058 C 
ATOM     31  C   UNL     1       2.973   8.235   5.244  1.00  0.00    -0.036 C 
ATOM     32  C   UNL     1       8.393  11.831   5.016  1.00  0.00    +0.089 C 
ATOM     33  C   UNL     1       8.563  11.149   5.843  1.00  0.00    +0.082 C 
ATOM     34  C   UNL     1       5.613   8.396   6.802  1.00  0.00    -0.084 C 
ATOM     35  C   UNL     1       7.034   9.762   6.298  1.00  0.00    -0.059 C 
ATOM     36  C   UNL     1       4.130   9.418   4.760  1.00  0.00    -0.055 C 
ATOM     37  C   UNL     1       4.240   6.972   7.397  1.00  0.00    -0.034 C 
ATOM     38  C   UNL     1       2.384   6.855   6.307  1.00  0.00    -0.036 C 
ATOM     39  C   UNL     1       3.497   6.236   7.684  1.00  0.00    -0.041 C 
ATOM     40  C   UNL     1       6.869  12.109   3.728  1.00  0.00    -0.055 C 
ATOM     41  C   UNL     1       2.562   6.177   7.135  1.00  0.00    -0.049 C 
ATOM     42  C   UNL     1       5.104   7.035   7.897  1.00  0.00    -0.062 C 
ATOM     43  C   UNL     1       3.671   5.616   8.448  1.00  0.00    -0.062 C 
BRANCH  32  44
ATOM     44  O   UNL     1       9.091  12.503   4.767  1.00  0.00    -0.389 OA
ATOM     45  H   UNL     1       9.553  12.429   3.918  1.00  0.00    +0.000 HD
ENDBRANCH  32  44
BRANCH  33  46
ATOM     46  O   UNL     1       9.419  11.189   6.360  1.00  0.00    -0.389 OA
ATOM     47  H   UNL     1       9.900  12.028   6.435  1.00  0.00    +0.000 HD
ENDBRANCH  33  46
BRANCH  24  48
ATOM     48  C   UNL     1       7.765  12.528   3.874  1.00  0.00    +0.052 C 
BRANCH  48  49
ATOM     49  O   UNL     1       7.476  12.561   2.917  1.00  0.00    -0.394 OA
ATOM     50  H   UNL     1       6.550  12.392   2.685  1.00  0.00    +0.000 HD
ENDBRANCH  48  49
ENDBRANCH  24  48
ENDBRANCH  15  29
ENDBRANCH  13  15
ENDBRANCH   2  13
BRANCH   5  51
ATOM     51  C   UNL     1      -1.254   6.685   4.980  1.00  0.00    +0.080 C 
BRANCH  51  52
ATOM     52  O   UNL     1      -1.488   5.914   5.572  1.00  0.00    -0.346 OA
BRANCH  52  54
ATOM     53  O   UNL     1      -1.956   6.814   6.976  1.00  0.00    -0.341 OA
ATOM     54  C   UNL     1      -1.492   6.029   6.566  1.00  0.00    +0.188 C 
ATOM     55  C   UNL     1      -1.032   5.359   7.148  1.00  0.00    +0.134 C 
ATOM     56  C   UNL     1      -1.036   5.474   8.142  1.00  0.00    +0.114 C 
ATOM     57  C   UNL     1      -1.960   6.929   7.969  1.00  0.00    +0.113 C 
ATOM     58  C   UNL     1      -1.500   6.259   8.552  1.00  0.00    +0.118 C 
BRANCH  55  59
ATOM     59  O   UNL     1      -0.568   4.574   6.738  1.00  0.00    -0.384 OA
ATOM     60  H   UNL     1       0.356   4.651   6.453  1.00  0.00    +0.000 HD
ENDBRANCH  55  59
BRANCH  56  61
ATOM     61  O   UNL     1      -0.576   4.804   8.725  1.00  0.00    -0.386 OA
ATOM     62  H   UNL     1       0.124   5.090   9.332  1.00  0.00    +0.000 HD
ENDBRANCH  56  61
BRANCH  58  63
ATOM     63  O   UNL     1      -1.504   6.374   9.545  1.00  0.00    -0.340 OA
BRANCH  63  65
ATOM     64  O   UNL     1      -0.073   7.349   9.522  1.00  0.00    -0.343 OA
ATOM     65  C   UNL     1      -0.697   6.739  10.010  1.00  0.00    +0.188 C 
ATOM     66  C   UNL     1      -0.514   6.493  10.962  1.00  0.00    +0.134 C 
ATOM     67  C   UNL     1       0.293   6.857  11.426  1.00  0.00    +0.114 C 
ATOM     68  C   UNL     1       0.735   7.714   9.987  1.00  0.00    +0.087 C 
ATOM     69  C   UNL     1       0.918   7.468  10.938  1.00  0.00    +0.109 C 
ATOM     70  C   UNL     1       1.359   8.324   9.499  1.00  0.00    -0.036 C 
BRANCH  66  71
ATOM     71  O   UNL     1      -1.138   5.882  11.449  1.00  0.00    -0.384 OA
ATOM     72  H   UNL     1      -2.042   5.752  11.123  1.00  0.00    +0.000 HD
ENDBRANCH  66  71
BRANCH  67  73
ATOM     73  O   UNL     1       0.476   6.611  12.378  1.00  0.00    -0.386 OA
ATOM     74  H   UNL     1       0.048   7.102  13.096  1.00  0.00    +0.000 HD
ENDBRANCH  67  73
BRANCH  69  75
ATOM     75  O   UNL     1       1.725   7.832  11.403  1.00  0.00    -0.387 OA
ATOM     76  H   UNL     1       2.073   8.704  11.158  1.00  0.00    +0.000 HD
ENDBRANCH  69  75
ENDBRANCH  63  65
ENDBRANCH  58  63
BRANCH  57  77
ATOM     77  C   UNL     1      -2.424   7.714   8.380  1.00  0.00    +0.073 C 
BRANCH  77  78
ATOM     78  O   UNL     1      -3.353   7.950   8.096  1.00  0.00    -0.392 OA
ATOM     79  H   UNL     1      -3.701   7.622   7.252  1.00  0.00    +0.000 HD
ENDBRANCH  77  78
ENDBRANCH  57  77
ENDBRANCH  52  54
ENDBRANCH  51  52
ENDBRANCH   5  51
TORSDOF 22
ENDMDL
MODEL 4
REMARK VINA RESULT:   -13.119      2.078      6.079
REMARK INTER + INTRA:         -13.157
REMARK INTER:                 -25.050
REMARK INTRA:                  11.893
REMARK UNBOUND:                12.232
REMARK  Name = 11954171
REMARK  29 active torsions:
REMARK  status: ('A' for Active; 'I' for Inactive)
REMARK    1  A    between atoms: O_1  and  C_36
REMARK    2  A    between atoms: O_2  and  C_37
REMARK    3  A    between atoms: O_3  and  C_44
REMARK    4  A    between atoms: O_4  and  C_47
REMARK    5  A    between atoms: O_4  and  C_50
REMARK    6  A    between atoms: O_7  and  C_51
REMARK    7  A    between atoms: O_8  and  C_52
REMARK    8  A    between atoms: O_9  and  C_54
REMARK    9  A    between atoms: O_10  and  C_55
REMARK   10  A    between atoms: O_10  and  C_56
REMARK   11  A    between atoms: O_12  and  C_57
REMARK   12  A    between atoms: O_13  and  C_60
REMARK   13  A    between atoms: O_13  and  C_62
REMARK   14  A    between atoms: O_14  and  C_58
REMARK   15  A    between atoms: O_15  and  C_61
REMARK   16  A    between atoms: O_17  and  C_63
REMARK   17  A    between atoms: O_18  and  C_64
REMARK   18  A    between atoms: O_19  and  C_66
REMARK   19  A    between atoms: C_20  and  C_34
REMARK   20  A    between atoms: C_22  and  C_39
REMARK   21  A    between atoms: C_23  and  C_40
REMARK   22  A    between atoms: C_28  and  C_44
REMARK   23  A    between atoms: C_28  and  C_45
REMARK   24  A    between atoms: C_33  and  C_47
REMARK   25  A    between atoms: C_41  and  C_48
REMARK   26  A    between atoms: C_43  and  C_49
REMARK   27  A    between atoms: C_53  and  C_55
REMARK   28  A    between atoms: C_59  and  C_61
REMARK   29  A    between atoms: C_65  and  C_67
REMARK                            x       y       z     vdW  Elec       q    Type
REMARK                         _______ _______ _______ _____ _____    ______ ____
ROOT
ATOM      1  O   UNL     1       1.750   7.741   4.297  1.00  0.00    -0.331 OA
ATOM      2  C   UNL     1       2.459   7.861   3.602  1.00  0.00    +0.234 C 
ATOM      3  C   UNL     1       2.364   7.419   2.710  1.00  0.00    +0.146 C 
ATOM      4  C   UNL     1       1.560   6.858   2.512  1.00  0.00    +0.115 C 
ATOM      5  C   UNL     1       0.946   7.180   4.100  1.00  0.00    +0.114 C 
ATOM      6  C   UNL     1       0.851   6.739   3.207  1.00  0.00    +0.112 C 
ENDROOT
BRANCH   3   7
ATOM      7  O   UNL     1       3.073   7.539   2.015  1.00  0.00    -0.383 OA
ATOM      8  H   UNL     1       2.910   7.255   1.102  1.00  0.00    +0.000 HD
ENDBRANCH   3   7
BRANCH   4   9
ATOM      9  O   UNL     1       1.465   6.417   1.620  1.00  0.00    -0.386 OA
ATOM     10  H   UNL     1       1.048   5.544   1.553  1.00  0.00    +0.000 HD
ENDBRANCH   4   9
BRANCH   6  11
ATOM     11  O   UNL     1       0.047   6.178   3.010  1.00  0.00    -0.386 OA
ATOM     12  H   UNL     1       0.108   5.452   2.370  1.00  0.00    +0.000 HD
ENDBRANCH   6  11
BRANCH   2  13
ATOM     13  O   UNL     1       3.263   8.422   3.799  1.00  0.00    -0.432 OA
BRANCH  13  15
ATOM     14  O   UNL     1       4.252   7.147   4.428  1.00  0.00    -0.250 OA
ATOM     15  C   UNL     1       3.949   8.100   4.451  1.00  0.00    +0.316 C 
BRANCH  15  29
ATOM     16  C   UNL     1       3.966   8.226   8.132  1.00  0.00    -0.019 C 
ATOM     17  C   UNL     1       4.352   8.861   8.800  1.00  0.00    -0.026 C 
ATOM     18  C   UNL     1       4.233   8.699   9.823  1.00  0.00    -0.023 C 
ATOM     19  C   UNL     1       4.088   8.395   7.153  1.00  0.00    -0.005 C 
ATOM     20  C   UNL     1       3.705   7.864  10.152  1.00  0.00    -0.025 C 
ATOM     21  C   UNL     1       3.434   7.385   8.438  1.00  0.00    -0.046 C 
ATOM     22  C   UNL     1       4.597   9.198   6.844  1.00  0.00    -0.063 C 
ATOM     23  C   UNL     1       3.302   7.203   9.455  1.00  0.00    -0.049 C 
ATOM     24  C   UNL     1       3.567   7.674  11.212  1.00  0.00    +0.023 C 
ATOM     25  C   UNL     1       4.732   9.386   5.829  1.00  0.00    -0.001 C 
ATOM     26  C   UNL     1       4.861   9.664   8.491  1.00  0.00    -0.031 C 
ATOM     27  C   UNL     1       4.661   9.401  10.530  1.00  0.00    -0.018 C 
ATOM     28  C   UNL     1       3.680   7.724   6.468  1.00  0.00    -0.042 C 
ATOM     29  C   UNL     1       4.333   8.730   5.126  1.00  0.00    +0.075 C 
ATOM     30  C   UNL     1       3.478   7.437   7.757  1.00  0.00    -0.058 C 
ATOM     31  C   UNL     1       3.803   7.893   5.448  1.00  0.00    -0.036 C 
ATOM     32  C   UNL     1       3.987   8.363  11.937  1.00  0.00    +0.089 C 
ATOM     33  C   UNL     1       4.538   9.233  11.594  1.00  0.00    +0.082 C 
ATOM     34  C   UNL     1       4.983   9.833   7.514  1.00  0.00    -0.084 C 
ATOM     35  C   UNL     1       4.741   9.500   9.506  1.00  0.00    -0.059 C 
ATOM     36  C   UNL     1       3.558   7.547   7.119  1.00  0.00    -0.055 C 
ATOM     37  C   UNL     1       5.288  10.265   5.517  1.00  0.00    -0.034 C 
ATOM     38  C   UNL     1       4.461   8.906   4.063  1.00  0.00    -0.036 C 
ATOM     39  C   UNL     1       5.430  10.462   4.460  1.00  0.00    -0.041 C 
ATOM     40  C   UNL     1       3.051   6.844  11.000  1.00  0.00    -0.055 C 
ATOM     41  C   UNL     1       5.014   9.778   3.728  1.00  0.00    -0.049 C 
ATOM     42  C   UNL     1       5.668  10.889   6.201  1.00  0.00    -0.062 C 
ATOM     43  C   UNL     1       5.940  11.268   4.162  1.00  0.00    -0.062 C 
BRANCH  32  44
ATOM     44  O   UNL     1       3.867   8.198  12.916  1.00  0.00    -0.389 OA
ATOM     45  H   UNL     1       3.699   7.299  13.239  1.00  0.00    +0.000 HD
ENDBRANCH  32  44
BRANCH  33  46
ATOM     46  O   UNL     1       4.928   9.874  12.255  1.00  0.00    -0.389 OA
ATOM     47  H   UNL     1       4.367  10.556  12.657  1.00  0.00    +0.000 HD
ENDBRANCH  33  46
BRANCH  24  48
ATOM     48  C   UNL     1       3.202   7.111  11.952  1.00  0.00    +0.052 C 
BRANCH  48  49
ATOM     49  O   UNL     1       2.405   6.528  11.790  1.00  0.00    -0.394 OA
ATOM     50  H   UNL     1       2.379   5.630  12.156  1.00  0.00    +0.000 HD
ENDBRANCH  48  49
ENDBRANCH  24  48
ENDBRANCH  15  29
ENDBRANCH  13  15
ENDBRANCH   2  13
BRANCH   5  51
ATOM     51  C   UNL     1       0.237   7.061   4.794  1.00  0.00    +0.080 C 
BRANCH  51  52
ATOM     52  O   UNL     1      -0.068   7.843   5.337  1.00  0.00    -0.346 OA
BRANCH  52  54
ATOM     53  O   UNL     1      -0.201   6.883   6.772  1.00  0.00    -0.341 OA
ATOM     54  C   UNL     1      -0.105   7.777   6.334  1.00  0.00    +0.188 C 
ATOM     55  C   UNL     1      -0.045   8.604   6.893  1.00  0.00    +0.134 C 
ATOM     56  C   UNL     1      -0.081   8.537   7.891  1.00  0.00    +0.114 C 
ATOM     57  C   UNL     1      -0.237   6.816   7.769  1.00  0.00    +0.113 C 
ATOM     58  C   UNL     1      -0.177   7.643   8.329  1.00  0.00    +0.118 C 
BRANCH  55  59
ATOM     59  O   UNL     1       0.051   9.497   6.455  1.00  0.00    -0.384 OA
ATOM     60  H   UNL     1       0.831  10.045   6.637  1.00  0.00    +0.000 HD
ENDBRANCH  55  59
BRANCH  56  61
ATOM     61  O   UNL     1      -0.021   9.364   8.450  1.00  0.00    -0.386 OA
ATOM     62  H   UNL     1       0.823   9.613   8.858  1.00  0.00    +0.000 HD
ENDBRANCH  56  61
BRANCH  58  63
ATOM     63  O   UNL     1      -0.213   7.576   9.326  1.00  0.00    -0.340 OA
BRANCH  63  65
ATOM     64  O   UNL     1      -1.938   7.728   9.317  1.00  0.00    -0.343 OA
ATOM     65  C   UNL     1      -1.068   7.765   9.809  1.00  0.00    +0.188 C 
ATOM     66  C   UNL     1      -1.053   7.990  10.783  1.00  0.00    +0.134 C 
ATOM     67  C   UNL     1      -1.908   8.179  11.266  1.00  0.00    +0.114 C 
ATOM     68  C   UNL     1      -2.793   7.917   9.801  1.00  0.00    +0.087 C 
ATOM     69  C   UNL     1      -2.778   8.142  10.775  1.00  0.00    +0.109 C 
ATOM     70  C   UNL     1      -3.664   7.881   9.309  1.00  0.00    -0.036 C 
BRANCH  66  71
ATOM     71  O   UNL     1      -0.183   8.026  11.274  1.00  0.00    -0.384 OA
ATOM     72  H   UNL     1      -0.140   7.762  12.206  1.00  0.00    +0.000 HD
ENDBRANCH  66  71
BRANCH  67  73
ATOM     73  O   UNL     1      -1.893   8.404  12.240  1.00  0.00    -0.386 OA
ATOM     74  H   UNL     1      -2.321   9.214  12.557  1.00  0.00    +0.000 HD
ENDBRANCH  67  73
BRANCH  69  75
ATOM     75  O   UNL     1      -3.633   8.331  11.258  1.00  0.00    -0.387 OA
ATOM     76  H   UNL     1      -4.424   8.592  10.760  1.00  0.00    +0.000 HD
ENDBRANCH  69  75
ENDBRANCH  63  65
ENDBRANCH  58  63
BRANCH  57  77
ATOM     77  C   UNL     1      -0.333   5.922   8.208  1.00  0.00    +0.073 C 
BRANCH  77  78
ATOM     78  O   UNL     1      -0.893   5.213   7.780  1.00  0.00    -0.392 OA
ATOM     79  H   UNL     1      -1.026   4.363   8.228  1.00  0.00    +0.000 HD
ENDBRANCH  77  78
ENDBRANCH  57  77
ENDBRANCH  52  54
ENDBRANCH  51  52
ENDBRANCH   5  51
TORSDOF 22
ENDMDL
MODEL 5
REMARK VINA RESULT:   -13.118      1.882      5.878
REMARK INTER + INTRA:         -13.155
REMARK INTER:                 -24.902
REMARK INTRA:                  11.747
REMARK UNBOUND:                12.232
REMARK  Name = 11954171
REMARK  29 active torsions:
REMARK  status: ('A' for Active; 'I' for Inactive)
REMARK    1  A    between atoms: O_1  and  C_36
REMARK    2  A    between atoms: O_2  and  C_37
REMARK    3  A    between atoms: O_3  and  C_44
REMARK    4  A    between atoms: O_4  and  C_47
REMARK    5  A    between atoms: O_4  and  C_50
REMARK    6  A    between atoms: O_7  and  C_51
REMARK    7  A    between atoms: O_8  and  C_52
REMARK    8  A    between atoms: O_9  and  C_54
REMARK    9  A    between atoms: O_10  and  C_55
REMARK   10  A    between atoms: O_10  and  C_56
REMARK   11  A    between atoms: O_12  and  C_57
REMARK   12  A    between atoms: O_13  and  C_60
REMARK   13  A    between atoms: O_13  and  C_62
REMARK   14  A    between atoms: O_14  and  C_58
REMARK   15  A    between atoms: O_15  and  C_61
REMARK   16  A    between atoms: O_17  and  C_63
REMARK   17  A    between atoms: O_18  and  C_64
REMARK   18  A    between atoms: O_19  and  C_66
REMARK   19  A    between atoms: C_20  and  C_34
REMARK   20  A    between atoms: C_22  and  C_39
REMARK   21  A    between atoms: C_23  and  C_40
REMARK   22  A    between atoms: C_28  and  C_44
REMARK   23  A    between atoms: C_28  and  C_45
REMARK   24  A    between atoms: C_33  and  C_47
REMARK   25  A    between atoms: C_41  and  C_48
REMARK   26  A    between atoms: C_43  and  C_49
REMARK   27  A    between atoms: C_53  and  C_55
REMARK   28  A    between atoms: C_59  and  C_61
REMARK   29  A    between atoms: C_65  and  C_67
REMARK                            x       y       z     vdW  Elec       q    Type
REMARK                         _______ _______ _______ _____ _____    ______ ____
ROOT
ATOM      1  O   UNL     1       2.283   7.062   3.878  1.00  0.00    -0.331 OA
ATOM      2  C   UNL     1       3.172   7.288   3.478  1.00  0.00    +0.234 C 
ATOM      3  C   UNL     1       3.360   7.069   2.521  1.00  0.00    +0.146 C 
ATOM      4  C   UNL     1       2.660   6.624   1.963  1.00  0.00    +0.115 C 
ATOM      5  C   UNL     1       1.583   6.617   3.320  1.00  0.00    +0.114 C 
ATOM      6  C   UNL     1       1.771   6.398   2.362  1.00  0.00    +0.112 C 
ENDROOT
BRANCH   3   7
ATOM      7  O   UNL     1       4.249   7.295   2.122  1.00  0.00    -0.383 OA
ATOM      8  H   UNL     1       5.062   6.955   2.526  1.00  0.00    +0.000 HD
ENDBRANCH   3   7
BRANCH   4   9
ATOM      9  O   UNL     1       2.848   6.405   1.006  1.00  0.00    -0.386 OA
ATOM     10  H   UNL     1       3.621   6.789   0.563  1.00  0.00    +0.000 HD
ENDBRANCH   4   9
BRANCH   6  11
ATOM     11  O   UNL     1       1.071   5.953   1.804  1.00  0.00    -0.386 OA
ATOM     12  H   UNL     1       1.059   6.086   0.844  1.00  0.00    +0.000 HD
ENDBRANCH   6  11
BRANCH   2  13
ATOM     13  O   UNL     1       3.872   7.733   4.036  1.00  0.00    -0.432 OA
BRANCH  13  15
ATOM     14  O   UNL     1       2.952   9.199   4.094  1.00  0.00    -0.250 OA
ATOM     15  C   UNL     1       3.691   8.626   4.448  1.00  0.00    +0.316 C 
BRANCH  15  29
ATOM     16  C   UNL     1       3.401   8.384   8.112  1.00  0.00    -0.019 C 
ATOM     17  C   UNL     1       3.964   8.707   8.873  1.00  0.00    -0.026 C 
ATOM     18  C   UNL     1       3.685   8.521   9.860  1.00  0.00    -0.023 C 
ATOM     19  C   UNL     1       3.682   8.570   7.170  1.00  0.00    -0.005 C 
ATOM     20  C   UNL     1       2.810   7.993  10.055  1.00  0.00    -0.025 C 
ATOM     21  C   UNL     1       2.522   7.853   8.284  1.00  0.00    -0.046 C 
ATOM     22  C   UNL     1       4.524   9.078   6.989  1.00  0.00    -0.063 C 
ATOM     23  C   UNL     1       2.224   7.656   9.262  1.00  0.00    -0.049 C 
ATOM     24  C   UNL     1       2.499   7.787  11.075  1.00  0.00    +0.023 C 
ATOM     25  C   UNL     1       4.827   9.278   6.013  1.00  0.00    -0.001 C 
ATOM     26  C   UNL     1       4.806   9.215   8.692  1.00  0.00    -0.031 C 
ATOM     27  C   UNL     1       4.311   8.881  10.670  1.00  0.00    -0.018 C 
ATOM     28  C   UNL     1       3.085   8.227   6.387  1.00  0.00    -0.042 C 
ATOM     29  C   UNL     1       4.248   8.946   5.215  1.00  0.00    +0.075 C 
ATOM     30  C   UNL     1       2.652   7.943   7.618  1.00  0.00    -0.058 C 
ATOM     31  C   UNL     1       3.370   8.416   5.403  1.00  0.00    -0.036 C 
ATOM     32  C   UNL     1       3.110   8.137  11.901  1.00  0.00    +0.089 C 
ATOM     33  C   UNL     1       4.022   8.688  11.696  1.00  0.00    +0.082 C 
ATOM     34  C   UNL     1       5.085   9.401   7.751  1.00  0.00    -0.084 C 
ATOM     35  C   UNL     1       4.526   9.029   9.672  1.00  0.00    -0.059 C 
ATOM     36  C   UNL     1       2.834   8.064   7.003  1.00  0.00    -0.055 C 
ATOM     37  C   UNL     1       5.745   9.832   5.842  1.00  0.00    -0.034 C 
ATOM     38  C   UNL     1       4.545   9.143   4.190  1.00  0.00    -0.036 C 
ATOM     39  C   UNL     1       6.062  10.041   4.826  1.00  0.00    -0.041 C 
ATOM     40  C   UNL     1       1.690   7.308  10.736  1.00  0.00    -0.055 C 
ATOM     41  C   UNL     1       5.458   9.695   3.994  1.00  0.00    -0.049 C 
ATOM     42  C   UNL     1       6.295  10.147   6.616  1.00  0.00    -0.062 C 
ATOM     43  C   UNL     1       6.906  10.551   4.657  1.00  0.00    -0.062 C 
BRANCH  32  44
ATOM     44  O   UNL     1       2.833   7.954  12.844  1.00  0.00    -0.389 OA
ATOM     45  H   UNL     1       2.781   7.040  13.165  1.00  0.00    +0.000 HD
ENDBRANCH  32  44
BRANCH  33  46
ATOM     46  O   UNL     1       4.591   9.016  12.451  1.00  0.00    -0.389 OA
ATOM     47  H   UNL     1       5.363   9.574  12.268  1.00  0.00    +0.000 HD
ENDBRANCH  33  46
BRANCH  24  48
ATOM     48  C   UNL     1       1.850   7.385  11.720  1.00  0.00    +0.052 C 
BRANCH  48  49
ATOM     49  O   UNL     1       1.222   6.668  11.416  1.00  0.00    -0.394 OA
ATOM     50  H   UNL     1       1.247   5.793  11.833  1.00  0.00    +0.000 HD
ENDBRANCH  48  49
ENDBRANCH  24  48
ENDBRANCH  15  29
ENDBRANCH  13  15
ENDBRANCH   2  13
BRANCH   5  51
ATOM     51  C   UNL     1       0.695   6.391   3.719  1.00  0.00    +0.080 C 
BRANCH  51  52
ATOM     52  O   UNL     1       0.622   5.656   4.393  1.00  0.00    -0.346 OA
BRANCH  52  54
ATOM     53  O   UNL     1      -0.926   6.105   5.027  1.00  0.00    -0.341 OA
ATOM     54  C   UNL     1      -0.003   5.749   5.169  1.00  0.00    +0.188 C 
ATOM     55  C   UNL     1       0.297   5.486   6.086  1.00  0.00    +0.134 C 
ATOM     56  C   UNL     1      -0.328   5.579   6.861  1.00  0.00    +0.114 C 
ATOM     57  C   UNL     1      -1.551   6.198   5.803  1.00  0.00    +0.113 C 
ATOM     58  C   UNL     1      -1.252   5.935   6.720  1.00  0.00    +0.118 C 
BRANCH  55  59
ATOM     59  O   UNL     1       1.220   5.130   6.228  1.00  0.00    -0.384 OA
ATOM     60  H   UNL     1       1.748   4.836   5.469  1.00  0.00    +0.000 HD
ENDBRANCH  55  59
BRANCH  56  61
ATOM     61  O   UNL     1      -0.029   5.316   7.779  1.00  0.00    -0.386 OA
ATOM     62  H   UNL     1      -0.187   4.414   8.100  1.00  0.00    +0.000 HD
ENDBRANCH  56  61
BRANCH  58  63
ATOM     63  O   UNL     1      -1.876   6.027   7.495  1.00  0.00    -0.340 OA
BRANCH  63  65
ATOM     64  O   UNL     1      -1.278   7.611   7.862  1.00  0.00    -0.343 OA
ATOM     65  C   UNL     1      -1.762   6.782   8.142  1.00  0.00    +0.188 C 
ATOM     66  C   UNL     1      -2.132   6.707   9.068  1.00  0.00    +0.134 C 
ATOM     67  C   UNL     1      -2.018   7.462   9.714  1.00  0.00    +0.114 C 
ATOM     68  C   UNL     1      -1.163   8.365   8.508  1.00  0.00    +0.087 C 
ATOM     69  C   UNL     1      -1.533   8.291   9.434  1.00  0.00    +0.109 C 
ATOM     70  C   UNL     1      -0.679   9.194   8.229  1.00  0.00    -0.036 C 
BRANCH  66  71
ATOM     71  O   UNL     1      -2.616   5.878   9.347  1.00  0.00    -0.384 OA
ATOM     72  H   UNL     1      -2.461   5.044   8.878  1.00  0.00    +0.000 HD
ENDBRANCH  66  71
BRANCH  67  73
ATOM     73  O   UNL     1      -2.388   7.387  10.640  1.00  0.00    -0.386 OA
ATOM     74  H   UNL     1      -3.149   7.927  10.903  1.00  0.00    +0.000 HD
ENDBRANCH  67  73
BRANCH  69  75
ATOM     75  O   UNL     1      -1.419   9.045  10.081  1.00  0.00    -0.387 OA
ATOM     76  H   UNL     1      -0.765   9.739   9.905  1.00  0.00    +0.000 HD
ENDBRANCH  69  75
ENDBRANCH  63  65
ENDBRANCH  58  63
BRANCH  57  77
ATOM     77  C   UNL     1      -2.475   6.554   5.661  1.00  0.00    +0.073 C 
BRANCH  77  78
ATOM     78  O   UNL     1      -2.746   6.895   4.761  1.00  0.00    -0.392 OA
ATOM     79  H   UNL     1      -2.093   6.954   4.047  1.00  0.00    +0.000 HD
ENDBRANCH  77  78
ENDBRANCH  57  77
ENDBRANCH  52  54
ENDBRANCH  51  52
ENDBRANCH   5  51
TORSDOF 22
ENDMDL
MODEL 6
REMARK VINA RESULT:   -13.090      2.131      6.826
REMARK INTER + INTRA:         -13.102
REMARK INTER:                 -24.996
REMARK INTRA:                  11.894
REMARK UNBOUND:                12.232
REMARK  Name = 11954171
REMARK  29 active torsions:
REMARK  status: ('A' for Active; 'I' for Inactive)
REMARK    1  A    between atoms: O_1  and  C_36
REMARK    2  A    between atoms: O_2  and  C_37
REMARK    3  A    between atoms: O_3  and  C_44
REMARK    4  A    between atoms: O_4  and  C_47
REMARK    5  A    between atoms: O_4  and  C_50
REMARK    6  A    between atoms: O_7  and  C_51
REMARK    7  A    between atoms: O_8  and  C_52
REMARK    8  A    between atoms: O_9  and  C_54
REMARK    9  A    between atoms: O_10  and  C_55
REMARK   10  A    between atoms: O_10  and  C_56
REMARK   11  A    between atoms: O_12  and  C_57
REMARK   12  A    between atoms: O_13  and  C_60
REMARK   13  A    between atoms: O_13  and  C_62
REMARK   14  A    between atoms: O_14  and  C_58
REMARK   15  A    between atoms: O_15  and  C_61
REMARK   16  A    between atoms: O_17  and  C_63
REMARK   17  A    between atoms: O_18  and  C_64
REMARK   18  A    between atoms: O_19  and  C_66
REMARK   19  A    between atoms: C_20  and  C_34
REMARK   20  A    between atoms: C_22  and  C_39
REMARK   21  A    between atoms: C_23  and  C_40
REMARK   22  A    between atoms: C_28  and  C_44
REMARK   23  A    between atoms: C_28  and  C_45
REMARK   24  A    between atoms: C_33  and  C_47
REMARK   25  A    between atoms: C_41  and  C_48
REMARK   26  A    between atoms: C_43  and  C_49
REMARK   27  A    between atoms: C_53  and  C_55
REMARK   28  A    between atoms: C_59  and  C_61
REMARK   29  A    between atoms: C_65  and  C_67
REMARK                            x       y       z     vdW  Elec       q    Type
REMARK                         _______ _______ _______ _____ _____    ______ ____
ROOT
ATOM      1  O   UNL     1       1.163   7.337   9.728  1.00  0.00    -0.331 OA
ATOM      2  C   UNL     1       0.189   7.134   9.825  1.00  0.00    +0.234 C 
ATOM      3  C   UNL     1      -0.233   7.127  10.732  1.00  0.00    +0.146 C 
ATOM      4  C   UNL     1       0.320   7.323  11.542  1.00  0.00    +0.115 C 
ATOM      5  C   UNL     1       1.716   7.533  10.538  1.00  0.00    +0.114 C 
ATOM      6  C   UNL     1       1.294   7.526  11.445  1.00  0.00    +0.112 C 
ENDROOT
BRANCH   3   7
ATOM      7  O   UNL     1      -1.207   6.924  10.828  1.00  0.00    -0.383 OA
ATOM      8  H   UNL     1      -1.583   6.136  10.404  1.00  0.00    +0.000 HD
ENDBRANCH   3   7
BRANCH   4   9
ATOM      9  O   UNL     1      -0.102   7.317  12.448  1.00  0.00    -0.386 OA
ATOM     10  H   UNL     1      -0.963   7.741  12.586  1.00  0.00    +0.000 HD
ENDBRANCH   4   9
BRANCH   6  11
ATOM     11  O   UNL     1       1.847   7.723  12.255  1.00  0.00    -0.386 OA
ATOM     12  H   UNL     1       2.066   8.640  12.482  1.00  0.00    +0.000 HD
ENDBRANCH   6  11
BRANCH   2  13
ATOM     13  O   UNL     1      -0.363   6.937   9.015  1.00  0.00    -0.432 OA
BRANCH  13  15
ATOM     14  O   UNL     1      -0.267   8.566   8.434  1.00  0.00    -0.250 OA
ATOM     15  C   UNL     1      -0.390   7.589   8.257  1.00  0.00    +0.316 C 
BRANCH  15  29
ATOM     16  C   UNL     1       1.716   7.385   5.243  1.00  0.00    -0.019 C 
ATOM     17  C   UNL     1       1.560   7.059   4.311  1.00  0.00    -0.026 C 
ATOM     18  C   UNL     1       2.318   7.096   3.598  1.00  0.00    -0.023 C 
ATOM     19  C   UNL     1       0.978   7.344   5.917  1.00  0.00    -0.005 C 
ATOM     20  C   UNL     1       3.251   7.477   3.859  1.00  0.00    -0.025 C 
ATOM     21  C   UNL     1       2.641   7.771   5.527  1.00  0.00    -0.046 C 
ATOM     22  C   UNL     1       0.085   6.976   5.659  1.00  0.00    -0.063 C 
ATOM     23  C   UNL     1       3.414   7.817   4.830  1.00  0.00    -0.049 C 
ATOM     24  C   UNL     1       4.057   7.525   3.133  1.00  0.00    +0.023 C 
ATOM     25  C   UNL     1      -0.693   6.927   6.351  1.00  0.00    -0.001 C 
ATOM     26  C   UNL     1       0.666   6.691   4.053  1.00  0.00    -0.031 C 
ATOM     27  C   UNL     1       2.126   6.736   2.592  1.00  0.00    -0.018 C 
ATOM     28  C   UNL     1       1.156   7.688   6.885  1.00  0.00    -0.042 C 
ATOM     29  C   UNL     1      -0.538   7.265   7.323  1.00  0.00    +0.075 C 
ATOM     30  C   UNL     1       2.185   7.773   6.037  1.00  0.00    -0.058 C 
ATOM     31  C   UNL     1       0.393   7.648   7.592  1.00  0.00    -0.036 C 
ATOM     32  C   UNL     1       3.887   7.171   2.122  1.00  0.00    +0.089 C 
ATOM     33  C   UNL     1       2.915   6.774   1.850  1.00  0.00    +0.082 C 
ATOM     34  C   UNL     1      -0.071   6.650   4.726  1.00  0.00    -0.084 C 
ATOM     35  C   UNL     1       1.422   6.729   3.346  1.00  0.00    -0.059 C 
ATOM     36  C   UNL     1       1.703   7.746   6.477  1.00  0.00    -0.055 C 
ATOM     37  C   UNL     1      -1.653   6.524   6.047  1.00  0.00    -0.034 C 
ATOM     38  C   UNL     1      -1.333   7.223   8.061  1.00  0.00    -0.036 C 
ATOM     39  C   UNL     1      -2.464   6.473   6.766  1.00  0.00    -0.041 C 
ATOM     40  C   UNL     1       4.660   7.926   3.823  1.00  0.00    -0.055 C 
ATOM     41  C   UNL     1      -2.303   6.825   7.780  1.00  0.00    -0.049 C 
ATOM     42  C   UNL     1      -1.791   6.203   5.110  1.00  0.00    -0.062 C 
ATOM     43  C   UNL     1      -3.353   6.103   6.497  1.00  0.00    -0.062 C 
BRANCH  32  44
ATOM     44  O   UNL     1       4.623   7.211   1.445  1.00  0.00    -0.389 OA
ATOM     45  H   UNL     1       4.409   7.262   0.500  1.00  0.00    +0.000 HD
ENDBRANCH  32  44
BRANCH  33  46
ATOM     46  O   UNL     1       2.749   6.445   0.920  1.00  0.00    -0.389 OA
ATOM     47  H   UNL     1       3.387   6.641   0.216  1.00  0.00    +0.000 HD
ENDBRANCH  33  46
BRANCH  24  48
ATOM     48  C   UNL     1       4.999   7.762   2.897  1.00  0.00    +0.052 C 
BRANCH  48  49
ATOM     49  O   UNL     1       5.544   8.326   3.519  1.00  0.00    -0.394 OA
ATOM     50  H   UNL     1       6.513   8.301   3.471  1.00  0.00    +0.000 HD
ENDBRANCH  48  49
ENDBRANCH  24  48
ENDBRANCH  15  29
ENDBRANCH  13  15
ENDBRANCH   2  13
BRANCH   5  51
ATOM     51  C   UNL     1       2.690   7.736  10.441  1.00  0.00    +0.080 C 
BRANCH  51  52
ATOM     52  O   UNL     1       3.248   7.215   9.795  1.00  0.00    -0.346 OA
BRANCH  52  54
ATOM     53  O   UNL     1       4.467   8.444   9.843  1.00  0.00    -0.341 OA
ATOM     54  C   UNL     1       4.104   7.600   9.450  1.00  0.00    +0.188 C 
ATOM     55  C   UNL     1       4.598   7.139   8.712  1.00  0.00    +0.134 C 
ATOM     56  C   UNL     1       5.454   7.524   8.367  1.00  0.00    +0.114 C 
ATOM     57  C   UNL     1       5.323   8.829   9.498  1.00  0.00    +0.113 C 
ATOM     58  C   UNL     1       5.817   8.369   8.760  1.00  0.00    +0.118 C 
BRANCH  55  59
ATOM     59  O   UNL     1       4.235   6.294   8.319  1.00  0.00    -0.384 OA
ATOM     60  H   UNL     1       4.356   5.452   8.784  1.00  0.00    +0.000 HD
ENDBRANCH  55  59
BRANCH  56  61
ATOM     61  O   UNL     1       5.947   7.063   7.629  1.00  0.00    -0.386 OA
ATOM     62  H   UNL     1       5.979   7.461   6.745  1.00  0.00    +0.000 HD
ENDBRANCH  56  61
BRANCH  58  63
ATOM     63  O   UNL     1       6.673   8.753   8.415  1.00  0.00    -0.340 OA
BRANCH  63  65
ATOM     64  O   UNL     1       5.818   9.710   7.251  1.00  0.00    -0.343 OA
ATOM     65  C   UNL     1       6.672   9.310   7.584  1.00  0.00    +0.188 C 
ATOM     66  C   UNL     1       7.525   9.466   7.087  1.00  0.00    +0.134 C 
ATOM     67  C   UNL     1       7.525  10.023   6.256  1.00  0.00    +0.114 C 
ATOM     68  C   UNL     1       5.818  10.266   6.420  1.00  0.00    +0.087 C 
ATOM     69  C   UNL     1       6.671  10.422   5.923  1.00  0.00    +0.109 C 
ATOM     70  C   UNL     1       4.964  10.666   6.087  1.00  0.00    -0.036 C 
BRANCH  66  71
ATOM     71  O   UNL     1       8.379   9.066   7.420  1.00  0.00    -0.384 OA
ATOM     72  H   UNL     1       8.370   8.473   8.187  1.00  0.00    +0.000 HD
ENDBRANCH  66  71
BRANCH  67  73
ATOM     73  O   UNL     1       8.378  10.179   5.758  1.00  0.00    -0.386 OA
ATOM     74  H   UNL     1       8.377  10.718   4.952  1.00  0.00    +0.000 HD
ENDBRANCH  67  73
BRANCH  69  75
ATOM     75  O   UNL     1       6.670  10.979   5.092  1.00  0.00    -0.387 OA
ATOM     76  H   UNL     1       6.781  11.941   5.152  1.00  0.00    +0.000 HD
ENDBRANCH  69  75
ENDBRANCH  63  65
ENDBRANCH  58  63
BRANCH  57  77
ATOM     77  C   UNL     1       5.686   9.674   9.891  1.00  0.00    +0.073 C 
BRANCH  77  78
ATOM     78  O   UNL     1       5.318  10.023  10.753  1.00  0.00    -0.392 OA
ATOM     79  H   UNL     1       5.477  10.944  11.011  1.00  0.00    +0.000 HD
ENDBRANCH  77  78
ENDBRANCH  57  77
ENDBRANCH  52  54
ENDBRANCH  51  52
ENDBRANCH   5  51
TORSDOF 22
ENDMDL
