MODEL 1
REMARK VINA RESULT:    -3.590      0.000      0.000
REMARK INTER + INTRA:          -3.905
REMARK INTER:                  -3.905
REMARK INTRA:                   0.000
REMARK UNBOUND:                 0.000
REMARK  Name = 612
REMARK  3 active torsions:
REMARK  status: ('A' for Active; 'I' for Inactive)
REMARK    1  A    between atoms: O_1  and  C_4
REMARK    2  A    between atoms: C_4  and  C_5
REMARK    3  A    between atoms: C_4  and  C_6
REMARK                            x       y       z     vdW  Elec       q    Type
REMARK                         _______ _______ _______ _____ _____    ______ ____
ROOT
ATOM      1  C   UNL     1     103.789 134.041 127.316  1.00  0.00    +0.149 C 
ATOM      2  C   UNL     1     104.165 135.502 127.491  1.00  0.00    -0.028 C 
ENDROOT
BRANCH   1   5
ATOM      3  O   UNL     1     104.429 133.550 129.562  1.00  0.00    -0.479 OA
ATOM      4  O   UNL     1     102.401 132.797 128.875  1.00  0.00    -0.248 OA
ATOM      5  C   UNL     1     103.440 133.401 128.643  1.00  0.00    +0.333 C 
ENDBRANCH   1   5
BRANCH   1   6
ATOM      6  O   UNL     1     102.648 133.978 126.473  1.00  0.00    -0.381 OA
ATOM      7  H   UNL     1     102.551 134.818 125.998  1.00  0.00    +0.000 HD
ENDBRANCH   1   6
TORSDOF 2
ENDMDL
MODEL 2
REMARK VINA RESULT:    -3.558      1.379      2.724
REMARK INTER + INTRA:          -3.870
REMARK INTER:                  -3.870
REMARK INTRA:                   0.000
REMARK UNBOUND:                 0.000
REMARK  Name = 612
REMARK  3 active torsions:
REMARK  status: ('A' for Active; 'I' for Inactive)
REMARK    1  A    between atoms: O_1  and  C_4
REMARK    2  A    between atoms: C_4  and  C_5
REMARK    3  A    between atoms: C_4  and  C_6
REMARK                            x       y       z     vdW  Elec       q    Type
REMARK                         _______ _______ _______ _____ _____    ______ ____
ROOT
ATOM      1  C   UNL     1     103.416 132.536 129.119  1.00  0.00    +0.149 C 
ATOM      2  C   UNL     1     104.037 131.161 128.951  1.00  0.00    -0.028 C 
ENDROOT
BRANCH   1   5
ATOM      3  O   UNL     1     105.239 133.586 127.991  1.00  0.00    -0.479 OA
ATOM      4  O   UNL     1     103.146 134.118 127.295  1.00  0.00    -0.248 OA
ATOM      5  C   UNL     1     103.886 133.487 128.038  1.00  0.00    +0.333 C 
ENDBRANCH   1   5
BRANCH   1   6
ATOM      6  O   UNL     1     102.007 132.399 129.015  1.00  0.00    -0.381 OA
ATOM      7  H   UNL     1     101.665 133.048 128.381  1.00  0.00    +0.000 HD
ENDBRANCH   1   6
TORSDOF 2
ENDMDL
MODEL 3
REMARK VINA RESULT:    -3.466      7.546      8.668
REMARK INTER + INTRA:          -3.770
REMARK INTER:                  -3.770
REMARK INTRA:                   0.000
REMARK UNBOUND:                 0.000
REMARK  Name = 612
REMARK  3 active torsions:
REMARK  status: ('A' for Active; 'I' for Inactive)
REMARK    1  A    between atoms: O_1  and  C_4
REMARK    2  A    between atoms: C_4  and  C_5
REMARK    3  A    between atoms: C_4  and  C_6
REMARK                            x       y       z     vdW  Elec       q    Type
REMARK                         _______ _______ _______ _____ _____    ______ ____
ROOT
ATOM      1  C   UNL     1     105.518 140.488 122.117  1.00  0.00    +0.149 C 
ATOM      2  C   UNL     1     106.804 141.102 121.592  1.00  0.00    -0.028 C 
ENDROOT
BRANCH   1   5
ATOM      3  O   UNL     1     104.831 138.502 123.249  1.00  0.00    -0.479 OA
ATOM      4  O   UNL     1     106.423 138.283 121.645  1.00  0.00    -0.248 OA
ATOM      5  C   UNL     1     105.653 138.989 122.283  1.00  0.00    +0.333 C 
ENDBRANCH   1   5
BRANCH   1   6
ATOM      6  O   UNL     1     105.245 141.058 123.388  1.00  0.00    -0.381 OA
ATOM      7  H   UNL     1     105.719 141.900 123.473  1.00  0.00    +0.000 HD
ENDBRANCH   1   6
TORSDOF 2
ENDMDL
MODEL 4
REMARK VINA RESULT:    -3.429      2.794      3.702
REMARK INTER + INTRA:          -3.729
REMARK INTER:                  -3.729
REMARK INTRA:                   0.000
REMARK UNBOUND:                 0.000
REMARK  Name = 612
REMARK  3 active torsions:
REMARK  status: ('A' for Active; 'I' for Inactive)
REMARK    1  A    between atoms: O_1  and  C_4
REMARK    2  A    between atoms: C_4  and  C_5
REMARK    3  A    between atoms: C_4  and  C_6
REMARK                            x       y       z     vdW  Elec       q    Type
REMARK                         _______ _______ _______ _____ _____    ______ ____
ROOT
ATOM      1  C   UNL     1     104.575 131.253 128.296  1.00  0.00    +0.149 C 
ATOM      2  C   UNL     1     105.067 130.152 129.219  1.00  0.00    -0.028 C 
ENDROOT
BRANCH   1   5
ATOM      3  O   UNL     1     104.875 133.580 127.857  1.00  0.00    -0.479 OA
ATOM      4  O   UNL     1     106.611 132.474 128.814  1.00  0.00    -0.248 OA
ATOM      5  C   UNL     1     105.471 132.472 128.369  1.00  0.00    +0.333 C 
ENDBRANCH   1   5
BRANCH   1   6
ATOM      6  O   UNL     1     104.600 130.756 126.967  1.00  0.00    -0.381 OA
ATOM      7  H   UNL     1     103.968 131.252 126.423  1.00  0.00    +0.000 HD
ENDBRANCH   1   6
TORSDOF 2
ENDMDL
MODEL 5
REMARK VINA RESULT:    -3.101      8.874     10.320
REMARK INTER + INTRA:          -3.373
REMARK INTER:                  -3.373
REMARK INTRA:                   0.000
REMARK UNBOUND:                 0.000
REMARK  Name = 612
REMARK  3 active torsions:
REMARK  status: ('A' for Active; 'I' for Inactive)
REMARK    1  A    between atoms: O_1  and  C_4
REMARK    2  A    between atoms: C_4  and  C_5
REMARK    3  A    between atoms: C_4  and  C_6
REMARK                            x       y       z     vdW  Elec       q    Type
REMARK                         _______ _______ _______ _____ _____    ______ ____
ROOT
ATOM      1  C   UNL     1     106.177 140.747 122.114  1.00  0.00    +0.149 C 
ATOM      2  C   UNL     1     106.175 139.336 121.551  1.00  0.00    -0.028 C 
ENDROOT
BRANCH   1   5
ATOM      3  O   UNL     1     104.686 142.576 121.758  1.00  0.00    -0.479 OA
ATOM      4  O   UNL     1     105.767 141.752 119.940  1.00  0.00    -0.248 OA
ATOM      5  C   UNL     1     105.549 141.726 121.144  1.00  0.00    +0.333 C 
ENDBRANCH   1   5
BRANCH   1   6
ATOM      6  O   UNL     1     105.410 140.744 123.309  1.00  0.00    -0.381 OA
ATOM      7  H   UNL     1     105.178 139.832 123.542  1.00  0.00    +0.000 HD
ENDBRANCH   1   6
TORSDOF 2
ENDMDL
MODEL 6
REMARK VINA RESULT:    -2.968      8.254      9.552
REMARK INTER + INTRA:          -3.228
REMARK INTER:                  -3.228
REMARK INTRA:                   0.000
REMARK UNBOUND:                 0.000
REMARK  Name = 612
REMARK  3 active torsions:
REMARK  status: ('A' for Active; 'I' for Inactive)
REMARK    1  A    between atoms: O_1  and  C_4
REMARK    2  A    between atoms: C_4  and  C_5
REMARK    3  A    between atoms: C_4  and  C_6
REMARK                            x       y       z     vdW  Elec       q    Type
REMARK                         _______ _______ _______ _____ _____    ______ ____
ROOT
ATOM      1  C   UNL     1     105.727 139.440 121.746  1.00  0.00    +0.149 C 
ATOM      2  C   UNL     1     105.796 140.808 122.402  1.00  0.00    -0.028 C 
ENDROOT
BRANCH   1   5
ATOM      3  O   UNL     1     107.499 138.281 120.644  1.00  0.00    -0.479 OA
ATOM      4  O   UNL     1     106.699 140.151 119.636  1.00  0.00    -0.248 OA
ATOM      5  C   UNL     1     106.666 139.350 120.561  1.00  0.00    +0.333 C 
ENDBRANCH   1   5
BRANCH   1   6
ATOM      6  O   UNL     1     106.123 138.472 122.706  1.00  0.00    -0.381 OA
ATOM      7  H   UNL     1     107.009 138.689 123.038  1.00  0.00    +0.000 HD
ENDBRANCH   1   6
TORSDOF 2
ENDMDL
MODEL 7
REMARK VINA RESULT:    -2.952      9.420     10.656
REMARK INTER + INTRA:          -3.211
REMARK INTER:                  -3.211
REMARK INTRA:                   0.000
REMARK UNBOUND:                 0.000
REMARK  Name = 612
REMARK  3 active torsions:
REMARK  status: ('A' for Active; 'I' for Inactive)
REMARK    1  A    between atoms: O_1  and  C_4
REMARK    2  A    between atoms: C_4  and  C_5
REMARK    3  A    between atoms: C_4  and  C_6
REMARK                            x       y       z     vdW  Elec       q    Type
REMARK                         _______ _______ _______ _____ _____    ______ ____
ROOT
ATOM      1  C   UNL     1     106.260 138.409 119.887  1.00  0.00    +0.149 C 
ATOM      2  C   UNL     1     106.547 139.897 119.976  1.00  0.00    -0.028 C 
ENDROOT
BRANCH   1   5
ATOM      3  O   UNL     1     105.668 137.415 117.799  1.00  0.00    -0.479 OA
ATOM      4  O   UNL     1     107.878 137.750 118.197  1.00  0.00    -0.248 OA
ATOM      5  C   UNL     1     106.712 137.841 118.557  1.00  0.00    +0.333 C 
ENDBRANCH   1   5
BRANCH   1   6
ATOM      6  O   UNL     1     106.983 137.759 120.921  1.00  0.00    -0.381 OA
ATOM      7  H   UNL     1     107.101 138.369 121.666  1.00  0.00    +0.000 HD
ENDBRANCH   1   6
TORSDOF 2
ENDMDL
MODEL 8
REMARK VINA RESULT:    -2.939     10.822     11.982
REMARK INTER + INTRA:          -3.196
REMARK INTER:                  -3.196
REMARK INTRA:                   0.000
REMARK UNBOUND:                 0.000
REMARK  Name = 612
REMARK  3 active torsions:
REMARK  status: ('A' for Active; 'I' for Inactive)
REMARK    1  A    between atoms: O_1  and  C_4
REMARK    2  A    between atoms: C_4  and  C_5
REMARK    3  A    between atoms: C_4  and  C_6
REMARK                            x       y       z     vdW  Elec       q    Type
REMARK                         _______ _______ _______ _____ _____    ______ ____
ROOT
ATOM      1  C   UNL     1     104.229 143.707 120.808  1.00  0.00    +0.149 C 
ATOM      2  C   UNL     1     105.084 143.133 119.692  1.00  0.00    -0.028 C 
ENDROOT
BRANCH   1   5
ATOM      3  O   UNL     1     105.038 142.124 122.402  1.00  0.00    -0.479 OA
ATOM      4  O   UNL     1     105.142 144.318 122.976  1.00  0.00    -0.248 OA
ATOM      5  C   UNL     1     104.852 143.449 122.165  1.00  0.00    +0.333 C 
ENDBRANCH   1   5
BRANCH   1   6
ATOM      6  O   UNL     1     104.139 145.110 120.615  1.00  0.00    -0.381 OA
ATOM      7  H   UNL     1     104.021 145.300 119.671  1.00  0.00    +0.000 HD
ENDBRANCH   1   6
TORSDOF 2
ENDMDL
MODEL 9
REMARK VINA RESULT:    -2.869     10.070     10.820
REMARK INTER + INTRA:          -3.120
REMARK INTER:                  -3.120
REMARK INTRA:                   0.000
REMARK UNBOUND:                 0.000
REMARK  Name = 612
REMARK  3 active torsions:
REMARK  status: ('A' for Active; 'I' for Inactive)
REMARK    1  A    between atoms: O_1  and  C_4
REMARK    2  A    between atoms: C_4  and  C_5
REMARK    3  A    between atoms: C_4  and  C_6
REMARK                            x       y       z     vdW  Elec       q    Type
REMARK                         _______ _______ _______ _____ _____    ______ ____
ROOT
ATOM      1  C   UNL     1     106.397 142.115 121.210  1.00  0.00    +0.149 C 
ATOM      2  C   UNL     1     106.478 140.898 120.305  1.00  0.00    -0.028 C 
ENDROOT
BRANCH   1   5
ATOM      3  O   UNL     1     104.636 141.322 122.612  1.00  0.00    -0.479 OA
ATOM      4  O   UNL     1     104.248 143.225 121.437  1.00  0.00    -0.248 OA
ATOM      5  C   UNL     1     104.995 142.307 121.748  1.00  0.00    +0.333 C 
ENDBRANCH   1   5
BRANCH   1   6
ATOM      6  O   UNL     1     107.274 141.906 122.306  1.00  0.00    -0.381 OA
ATOM      7  H   UNL     1     107.441 142.752 122.753  1.00  0.00    +0.000 HD
ENDBRANCH   1   6
TORSDOF 2
ENDMDL
