REMARK  Name = 134129847
REMARK  64 active torsions:
REMARK  status: ('A' for Active; 'I' for Inactive)
REMARK    1  A    between atoms: O_1  and  C_54
REMARK    2  A    between atoms: O_1  and  C_55
REMARK    3  A    between atoms: O_3  and  C_51
REMARK    4  A    between atoms: O_3  and  C_60
REMARK    5  A    between atoms: O_6  and  C_64
REMARK    6  A    between atoms: O_6  and  C_66
REMARK    7  A    between atoms: O_7  and  C_58
REMARK    8  A    between atoms: O_7  and  C_69
REMARK    9  A    between atoms: O_10  and  C_68
REMARK   10  A    between atoms: O_10  and  C_78
REMARK   11  A    between atoms: O_11  and  C_53
REMARK   12  A    between atoms: O_12  and  C_57
REMARK   13  A    between atoms: O_12  and  C_99
REMARK   14  A    between atoms: O_13  and  C_74
REMARK   15  A    between atoms: O_13  and  C_83
REMARK   16  A    between atoms: O_14  and  C_61
REMARK   17  A    between atoms: O_14  and  C_100
REMARK   18  A    between atoms: O_16  and  C_62
REMARK   19  A    between atoms: O_17  and  C_63
REMARK   20  A    between atoms: O_18  and  C_75
REMARK   21  A    between atoms: O_18  and  C_88
REMARK   22  A    between atoms: O_19  and  C_67
REMARK   23  A    between atoms: O_19  and  C_103
REMARK   24  A    between atoms: O_20  and  C_71
REMARK   25  A    between atoms: O_20  and  C_104
REMARK   26  A    between atoms: O_21  and  C_72
REMARK   27  A    between atoms: O_22  and  C_73
REMARK   28  A    between atoms: O_23  and  C_79
REMARK   29  A    between atoms: O_23  and  C_105
REMARK   30  A    between atoms: O_26  and  C_76
REMARK   31  A    between atoms: O_27  and  C_80
REMARK   32  A    between atoms: O_28  and  C_81
REMARK   33  A    between atoms: O_29  and  C_84
REMARK   34  A    between atoms: O_30  and  C_85
REMARK   35  A    between atoms: O_30  and  C_108
REMARK   36  A    between atoms: O_31  and  C_86
REMARK   37  A    between atoms: O_32  and  C_91
REMARK   38  A    between atoms: O_32  and  C_112
REMARK   39  A    between atoms: O_33  and  C_89
REMARK   40  A    between atoms: O_34  and  C_92
REMARK   41  A    between atoms: O_34  and  C_111
REMARK   42  A    between atoms: O_35  and  C_90
REMARK   43  A    between atoms: O_36  and  C_96
REMARK   44  A    between atoms: O_36  and  C_114
REMARK   45  A    between atoms: O_37  and  C_93
REMARK   46  A    between atoms: O_41  and  C_98
REMARK   47  A    between atoms: O_43  and  C_101
REMARK   48  A    between atoms: N_50  and  C_52
REMARK   49  A    between atoms: C_56  and  C_76
REMARK   50  A    between atoms: C_59  and  C_81
REMARK   51  A    between atoms: C_65  and  C_84
REMARK   52  A    between atoms: C_70  and  C_86
REMARK   53  A    between atoms: C_77  and  C_97
REMARK   54  A    between atoms: C_82  and  C_93
REMARK   55  A    between atoms: C_87  and  C_98
REMARK   56  A    between atoms: C_94  and  C_101
REMARK   57  A    between atoms: C_95  and  C_102
REMARK   58  A    between atoms: C_99  and  C_106
REMARK   59  A    between atoms: C_100  and  C_107
REMARK   60  A    between atoms: C_103  and  C_109
REMARK   61  A    between atoms: C_104  and  C_110
REMARK   62  A    between atoms: C_105  and  C_113
REMARK   63  A    between atoms: C_108  and  C_115
REMARK   64  A    between atoms: C_112  and  C_116
REMARK                            x       y       z     vdW  Elec       q    Type
REMARK                         _______ _______ _______ _____ _____    ______ ____
ROOT
ATOM      1  O   UNL     1      18.064  -5.013   0.000  1.00  0.00    -0.340 OA
ENDROOT
BRANCH   1   3
ATOM      2  O   UNL     1      19.796  -3.013   0.000  1.00  0.00    -0.341 OA
ATOM      3  C   UNL     1      18.930  -4.513   0.000  1.00  0.00    +0.118 C 
ATOM      4  C   UNL     1      20.662  -4.513   0.000  1.00  0.00    +0.102 C 
ATOM      5  C   UNL     1      19.796  -5.013   0.000  1.00  0.00    +0.107 C 
ATOM      6  C   UNL     1      20.662  -3.513   0.000  1.00  0.00    +0.181 C 
ATOM      7  C   UNL     1      18.930  -3.513   0.000  1.00  0.00    +0.113 C 
BRANCH   4   9
ATOM      8  O   UNL     1      20.662  -6.513   0.000  1.00  0.00    -0.276 OA
ATOM      9  N   UNL     1      21.528  -5.013   0.000  1.00  0.00    -0.305 N 
ATOM     10  C   UNL     1      21.528  -6.013   0.000  1.00  0.00    +0.210 C 
ATOM     11  C   UNL     1      22.394  -6.513   0.000  1.00  0.00    +0.012 C 
ATOM     12  H   UNL     1      22.380  -4.521   0.000  1.00  0.00    +0.000 HD
ENDBRANCH   4   9
BRANCH   5  13
ATOM     13  O   UNL     1      19.796  -6.013   0.000  1.00  0.00    -0.387 OA
ATOM     14  H   UNL     1      18.956  -6.498   0.000  1.00  0.00    +0.000 HD
ENDBRANCH   5  13
BRANCH   6  15
ATOM     15  O   UNL     1      21.528  -3.013   0.000  1.00  0.00    -0.340 OA
BRANCH  15  17
ATOM     16  O   UNL     1      22.028  -0.415   0.000  1.00  0.00    -0.340 OA
ATOM     17  C   UNL     1      22.028  -2.147   0.000  1.00  0.00    +0.129 C 
ATOM     18  C   UNL     1      23.028  -2.147   0.000  1.00  0.00    +0.162 C 
ATOM     19  C   UNL     1      21.528  -1.281   0.000  1.00  0.00    +0.114 C 
ATOM     20  C   UNL     1      23.528  -1.281   0.000  1.00  0.00    +0.145 C 
ATOM     21  C   UNL     1      23.028  -0.415   0.000  1.00  0.00    +0.190 C 
BRANCH  20  22
ATOM     22  O   UNL     1      24.528  -1.281   0.000  1.00  0.00    -0.383 OA
ATOM     23  H   UNL     1      25.013  -2.121   0.000  1.00  0.00    +0.000 HD
ENDBRANCH  20  22
BRANCH  18  24
ATOM     24  O   UNL     1      23.528  -3.013   0.000  1.00  0.00    -0.456 OA
BRANCH  24  26
ATOM     25  O   UNL     1      25.028  -2.147   0.000  1.00  0.00    -0.251 OA
ATOM     26  C   UNL     1      24.528  -3.013   0.000  1.00  0.00    +0.304 C 
ATOM     27  C   UNL     1      25.028  -3.879   0.000  1.00  0.00    +0.033 C 
ENDBRANCH  24  26
ENDBRANCH  18  24
BRANCH  21  28
ATOM     28  O   UNL     1      23.528   0.451   0.000  1.00  0.00    -0.339 OA
BRANCH  28  30
ATOM     29  O   UNL     1      21.528   2.183   0.000  1.00  0.00    -0.340 OA
ATOM     30  C   UNL     1      23.028   1.317   0.000  1.00  0.00    +0.129 C 
ATOM     31  C   UNL     1      23.528   2.183   0.000  1.00  0.00    +0.162 C 
ATOM     32  C   UNL     1      22.028   1.317   0.000  1.00  0.00    +0.114 C 
ATOM     33  C   UNL     1      23.028   3.049   0.000  1.00  0.00    +0.145 C 
ATOM     34  C   UNL     1      22.028   3.049   0.000  1.00  0.00    +0.190 C 
BRANCH  33  35
ATOM     35  O   UNL     1      23.528   3.915   0.000  1.00  0.00    -0.383 OA
ATOM     36  H   UNL     1      24.498   3.915   0.000  1.00  0.00    +0.000 HD
ENDBRANCH  33  35
BRANCH  34  37
ATOM     37  O   UNL     1      21.528   3.915   0.000  1.00  0.00    -0.339 OA
BRANCH  37  39
ATOM     38  O   UNL     1      19.028   3.049   0.000  1.00  0.00    -0.340 OA
ATOM     39  C   UNL     1      20.528   3.915   0.000  1.00  0.00    +0.129 C 
ATOM     40  C   UNL     1      20.028   4.781   0.000  1.00  0.00    +0.162 C 
ATOM     41  C   UNL     1      20.028   3.049   0.000  1.00  0.00    +0.114 C 
ATOM     42  C   UNL     1      19.028   4.781   0.000  1.00  0.00    +0.145 C 
ATOM     43  C   UNL     1      18.528   3.915   0.000  1.00  0.00    +0.189 C 
BRANCH  42  44
ATOM     44  O   UNL     1      18.528   5.647   0.000  1.00  0.00    -0.383 OA
ATOM     45  H   UNL     1      19.013   6.487   0.000  1.00  0.00    +0.000 HD
ENDBRANCH  42  44
BRANCH  43  46
ATOM     46  O   UNL     1      17.528   3.915   0.000  1.00  0.00    -0.352 OA
ATOM     47  C   UNL     1      17.028   3.049   0.000  1.00  0.00    +0.040 C 
ENDBRANCH  43  46
BRANCH  40  48
ATOM     48  O   UNL     1      20.528   5.647   0.000  1.00  0.00    -0.456 OA
BRANCH  48  50
ATOM     49  O   UNL     1      22.028   6.513   0.000  1.00  0.00    -0.251 OA
ATOM     50  C   UNL     1      21.528   5.647   0.000  1.00  0.00    +0.304 C 
ATOM     51  C   UNL     1      22.028   4.781   0.000  1.00  0.00    +0.033 C 
ENDBRANCH  48  50
ENDBRANCH  40  48
BRANCH  41  52
ATOM     52  C   UNL     1      20.528   2.183   0.000  1.00  0.00    +0.073 C 
BRANCH  52  53
ATOM     53  O   UNL     1      20.028   1.317   0.000  1.00  0.00    -0.392 OA
ATOM     54  H   UNL     1      19.058   1.317   0.000  1.00  0.00    +0.000 HD
ENDBRANCH  52  53
ENDBRANCH  41  52
ENDBRANCH  37  39
ENDBRANCH  34  37
BRANCH  31  55
ATOM     55  O   UNL     1      24.528   2.183   0.000  1.00  0.00    -0.456 OA
BRANCH  55  57
ATOM     56  O   UNL     1      24.528   3.915   0.000  1.00  0.00    -0.251 OA
ATOM     57  C   UNL     1      25.028   3.049   0.000  1.00  0.00    +0.304 C 
ATOM     58  C   UNL     1      26.028   3.049   0.000  1.00  0.00    +0.033 C 
ENDBRANCH  55  57
ENDBRANCH  31  55
BRANCH  32  59
ATOM     59  C   UNL     1      21.528   0.451   0.000  1.00  0.00    +0.073 C 
BRANCH  59  60
ATOM     60  O   UNL     1      20.528   0.451   0.000  1.00  0.00    -0.392 OA
ATOM     61  H   UNL     1      20.043   1.291   0.000  1.00  0.00    +0.000 HD
ENDBRANCH  59  60
ENDBRANCH  32  59
ENDBRANCH  28  30
ENDBRANCH  21  28
BRANCH  19  62
ATOM     62  C   UNL     1      20.528  -1.281   0.000  1.00  0.00    +0.073 C 
BRANCH  62  63
ATOM     63  O   UNL     1      20.028  -2.147   0.000  1.00  0.00    -0.392 OA
ATOM     64  H   UNL     1      19.058  -2.147   0.000  1.00  0.00    +0.000 HD
ENDBRANCH  62  63
ENDBRANCH  19  62
ENDBRANCH  15  17
ENDBRANCH   6  15
BRANCH   7  65
ATOM     65  C   UNL     1      18.064  -3.013   0.000  1.00  0.00    +0.073 C 
BRANCH  65  66
ATOM     66  O   UNL     1      18.064  -2.013   0.000  1.00  0.00    -0.392 OA
ATOM     67  H   UNL     1      18.904  -1.528   0.000  1.00  0.00    +0.000 HD
ENDBRANCH  65  66
ENDBRANCH   7  65
ENDBRANCH   1   3
BRANCH   1  70
ATOM     68  O   UNL     1      17.198  -3.513   0.000  1.00  0.00    -0.340 OA
ATOM     69  C   UNL     1      15.466  -3.513   0.000  1.00  0.00    +0.129 C 
ATOM     70  C   UNL     1      17.198  -4.513   0.000  1.00  0.00    +0.189 C 
ATOM     71  C   UNL     1      15.466  -4.513   0.000  1.00  0.00    +0.162 C 
ATOM     72  C   UNL     1      16.331  -5.013   0.000  1.00  0.00    +0.145 C 
ATOM     73  C   UNL     1      16.331  -3.013   0.000  1.00  0.00    +0.114 C 
BRANCH  72  74
ATOM     74  O   UNL     1      16.331  -6.013   0.000  1.00  0.00    -0.383 OA
ATOM     75  H   UNL     1      15.491  -6.498   0.000  1.00  0.00    +0.000 HD
ENDBRANCH  72  74
BRANCH  71  76
ATOM     76  O   UNL     1      14.600  -5.013   0.000  1.00  0.00    -0.456 OA
BRANCH  76  78
ATOM     77  O   UNL     1      15.466  -6.513   0.000  1.00  0.00    -0.251 OA
ATOM     78  C   UNL     1      14.600  -6.013   0.000  1.00  0.00    +0.304 C 
ATOM     79  C   UNL     1      13.733  -6.513   0.000  1.00  0.00    +0.033 C 
ENDBRANCH  76  78
ENDBRANCH  71  76
BRANCH  69  80
ATOM     80  O   UNL     1      14.600  -3.013   0.000  1.00  0.00    -0.339 OA
BRANCH  80  83
ATOM     81  O   UNL     1      12.972  -2.421   0.000  1.00  0.00    -0.331 OA
ATOM     82  C   UNL     1      11.645  -3.534   0.000  1.00  0.00    +0.138 C 
ATOM     83  C   UNL     1      13.615  -3.187   0.000  1.00  0.00    +0.190 C 
ATOM     84  C   UNL     1      12.288  -4.300   0.000  1.00  0.00    +0.162 C 
ATOM     85  C   UNL     1      13.273  -4.127   0.000  1.00  0.00    +0.145 C 
ATOM     86  C   UNL     1      11.987  -2.594   0.000  1.00  0.00    +0.187 C 
BRANCH  86  89
ATOM     87  O   UNL     1      12.288  -0.889   0.000  1.00  0.00    -0.479 OA
ATOM     88  O   UNL     1      10.660  -1.481   0.000  1.00  0.00    -0.248 OA
ATOM     89  C   UNL     1      11.645  -1.655   0.000  1.00  0.00    +0.337 C 
ENDBRANCH  86  89
BRANCH  85  90
ATOM     90  O   UNL     1      13.915  -4.893   0.000  1.00  0.00    -0.383 OA
ATOM     91  H   UNL     1      13.584  -5.804   0.000  1.00  0.00    +0.000 HD
ENDBRANCH  85  90
BRANCH  84  92
ATOM     92  O   UNL     1      11.946  -5.240   0.000  1.00  0.00    -0.456 OA
BRANCH  92  94
ATOM     93  O   UNL     1      10.318  -4.647   0.000  1.00  0.00    -0.251 OA
ATOM     94  C   UNL     1      10.961  -5.413   0.000  1.00  0.00    +0.304 C 
ATOM     95  C   UNL     1      10.619  -6.353   0.000  1.00  0.00    +0.033 C 
ENDBRANCH  92  94
ENDBRANCH  84  92
BRANCH  82  96
ATOM     96  O   UNL     1      10.660  -3.708   0.000  1.00  0.00    -0.338 OA
BRANCH  96  99
ATOM     97  O   UNL     1       9.794  -2.208   0.000  1.00  0.00    -0.340 OA
ATOM     98  C   UNL     1       8.062  -2.208   0.000  1.00  0.00    +0.129 C 
ATOM     99  C   UNL     1       9.794  -3.208   0.000  1.00  0.00    +0.190 C 
ATOM    100  C   UNL     1       8.062  -3.208   0.000  1.00  0.00    +0.162 C 
ATOM    101  C   UNL     1       8.928  -3.708   0.000  1.00  0.00    +0.145 C 
ATOM    102  C   UNL     1       8.928  -1.708   0.000  1.00  0.00    +0.114 C 
BRANCH 101 103
ATOM    103  O   UNL     1       8.928  -4.708   0.000  1.00  0.00    -0.383 OA
ATOM    104  H   UNL     1       8.088  -5.193   0.000  1.00  0.00    +0.000 HD
ENDBRANCH 101 103
BRANCH  98 105
ATOM    105  O   UNL     1       7.196  -1.708   0.000  1.00  0.00    -0.339 OA
BRANCH 105 107
ATOM    106  O   UNL     1       6.330  -3.208   0.000  1.00  0.00    -0.340 OA
ATOM    107  C   UNL     1       6.330  -2.208   0.000  1.00  0.00    +0.190 C 
ATOM    108  C   UNL     1       5.464  -1.708   0.000  1.00  0.00    +0.145 C 
ATOM    109  C   UNL     1       4.598  -2.208   0.000  1.00  0.00    +0.162 C 
ATOM    110  C   UNL     1       4.598  -3.208   0.000  1.00  0.00    +0.126 C 
ATOM    111  C   UNL     1       5.464  -3.708   0.000  1.00  0.00    +0.114 C 
BRANCH 108 112
ATOM    112  O   UNL     1       5.464  -0.708   0.000  1.00  0.00    -0.383 OA
ATOM    113  H   UNL     1       6.304  -0.223   0.000  1.00  0.00    +0.000 HD
ENDBRANCH 108 112
BRANCH 110 114
ATOM    114  O   UNL     1       3.732  -3.708   0.000  1.00  0.00    -0.373 OA
ATOM    115  C   UNL     1       3.732  -4.708   0.000  1.00  0.00    +0.037 C 
ENDBRANCH 110 114
BRANCH 109 116
ATOM    116  O   UNL     1       3.732  -1.708   0.000  1.00  0.00    -0.456 OA
BRANCH 116 118
ATOM    117  O   UNL     1       2.866  -3.208   0.000  1.00  0.00    -0.251 OA
ATOM    118  C   UNL     1       2.866  -2.208   0.000  1.00  0.00    +0.304 C 
ATOM    119  C   UNL     1       2.000  -1.708   0.000  1.00  0.00    +0.033 C 
ENDBRANCH 116 118
ENDBRANCH 109 116
BRANCH 111 120
ATOM    120  C   UNL     1       5.464  -4.708   0.000  1.00  0.00    +0.073 C 
BRANCH 120 121
ATOM    121  O   UNL     1       4.598  -5.208   0.000  1.00  0.00    -0.392 OA
ATOM    122  H   UNL     1       3.758  -4.723   0.000  1.00  0.00    +0.000 HD
ENDBRANCH 120 121
ENDBRANCH 111 120
ENDBRANCH 105 107
ENDBRANCH  98 105
BRANCH 100 123
ATOM    123  O   UNL     1       7.196  -3.708   0.000  1.00  0.00    -0.456 OA
BRANCH 123 125
ATOM    124  O   UNL     1       8.062  -5.208   0.000  1.00  0.00    -0.251 OA
ATOM    125  C   UNL     1       7.196  -4.708   0.000  1.00  0.00    +0.304 C 
ATOM    126  C   UNL     1       6.330  -5.208   0.000  1.00  0.00    +0.033 C 
ENDBRANCH 123 125
ENDBRANCH 100 123
BRANCH 102 127
ATOM    127  C   UNL     1       8.928  -0.708   0.000  1.00  0.00    +0.073 C 
BRANCH 127 128
ATOM    128  O   UNL     1       8.062  -0.208   0.000  1.00  0.00    -0.392 OA
ATOM    129  H   UNL     1       8.062   0.762   0.000  1.00  0.00    +0.000 HD
ENDBRANCH 127 128
ENDBRANCH 102 127
ENDBRANCH  96  99
ENDBRANCH  82  96
ENDBRANCH  80  83
ENDBRANCH  69  80
BRANCH  73 130
ATOM    130  C   UNL     1      16.331  -2.013   0.000  1.00  0.00    +0.073 C 
BRANCH 130 131
ATOM    131  O   UNL     1      15.466  -1.513   0.000  1.00  0.00    -0.392 OA
ATOM    132  H   UNL     1      15.466  -0.543   0.000  1.00  0.00    +0.000 HD
ENDBRANCH 130 131
ENDBRANCH  73 130
ENDBRANCH   1  70
TORSDOF 54
