REMARK  Name = 54670067
REMARK  5 active torsions:
REMARK  status: ('A' for Active; 'I' for Inactive)
REMARK    1  A    between atoms: O_2  and  C_8
REMARK    2  A    between atoms: O_4  and  C_10
REMARK    3  A    between atoms: O_5  and  C_11
REMARK    4  A    between atoms: C_7  and  C_8
REMARK    5  A    between atoms: C_8  and  C_10
REMARK                            x       y       z     vdW  Elec       q    Type
REMARK                         _______ _______ _______ _____ _____    ______ ____
ROOT
ATOM      1  O   UNL     1       0.093  -1.107   0.644  1.00  0.00    -0.445 OA
ATOM      2  O   UNL     1       0.839   2.390   0.284  1.00  0.00    -0.504 OA
ATOM      3  O   UNL     1       1.992  -2.156  -0.138  1.00  0.00    -0.241 OA
ATOM      4  C   UNL     1      -0.340   0.262   0.785  1.00  0.00    +0.191 C 
ATOM      5  C   UNL     1       0.821   1.026   0.289  1.00  0.00    +0.186 C 
ATOM      6  C   UNL     1       1.808   0.227  -0.105  1.00  0.00    +0.244 C 
ATOM      7  C   UNL     1       1.354  -1.148   0.111  1.00  0.00    +0.378 C 
ENDROOT
BRANCH   6   8
ATOM      8  O   UNL     1       3.022   0.570  -0.606  1.00  0.00    -0.499 OA
ATOM      9  H   UNL     1       3.245   1.473  -0.717  1.00  0.00    +0.000 HD
ENDBRANCH   6   8
BRANCH   4  10
ATOM     10  C   UNL     1      -1.606   0.459  -0.033  1.00  0.00    +0.122 C 
BRANCH  10  11
ATOM     11  O   UNL     1      -1.344   0.089  -1.386  1.00  0.00    -0.385 OA
ATOM     12  H   UNL     1      -0.619   0.632  -1.735  1.00  0.00    +0.000 HD
ENDBRANCH  10  11
BRANCH  10  13
ATOM     13  C   UNL     1      -2.746  -0.408   0.486  1.00  0.00    +0.074 C 
BRANCH  13  14
ATOM     14  O   UNL     1      -3.893  -0.204  -0.333  1.00  0.00    -0.392 OA
ATOM     15  H   UNL     1      -4.624  -0.753  -0.008  1.00  0.00    +0.000 HD
ENDBRANCH  13  14
ENDBRANCH  10  13
ENDBRANCH   4  10
TORSDOF 5
