REMARK  Name = 11954171
REMARK  29 active torsions:
REMARK  status: ('A' for Active; 'I' for Inactive)
REMARK    1  A    between atoms: O_1  and  C_36
REMARK    2  A    between atoms: O_2  and  C_37
REMARK    3  A    between atoms: O_3  and  C_44
REMARK    4  A    between atoms: O_4  and  C_47
REMARK    5  A    between atoms: O_4  and  C_50
REMARK    6  A    between atoms: O_7  and  C_51
REMARK    7  A    between atoms: O_8  and  C_52
REMARK    8  A    between atoms: O_9  and  C_54
REMARK    9  A    between atoms: O_10  and  C_55
REMARK   10  A    between atoms: O_10  and  C_56
REMARK   11  A    between atoms: O_12  and  C_57
REMARK   12  A    between atoms: O_13  and  C_60
REMARK   13  A    between atoms: O_13  and  C_62
REMARK   14  A    between atoms: O_14  and  C_58
REMARK   15  A    between atoms: O_15  and  C_61
REMARK   16  A    between atoms: O_17  and  C_63
REMARK   17  A    between atoms: O_18  and  C_64
REMARK   18  A    between atoms: O_19  and  C_66
REMARK   19  A    between atoms: C_20  and  C_34
REMARK   20  A    between atoms: C_22  and  C_39
REMARK   21  A    between atoms: C_23  and  C_40
REMARK   22  A    between atoms: C_28  and  C_44
REMARK   23  A    between atoms: C_28  and  C_45
REMARK   24  A    between atoms: C_33  and  C_47
REMARK   25  A    between atoms: C_41  and  C_48
REMARK   26  A    between atoms: C_43  and  C_49
REMARK   27  A    between atoms: C_53  and  C_55
REMARK   28  A    between atoms: C_59  and  C_61
REMARK   29  A    between atoms: C_65  and  C_67
REMARK                            x       y       z     vdW  Elec       q    Type
REMARK                         _______ _______ _______ _____ _____    ______ ____
ROOT
ATOM      1  O   UNL     1      11.197  -0.518   0.000  1.00  0.00    -0.331 OA
ATOM      2  C   UNL     1      12.063  -0.018   0.000  1.00  0.00    +0.234 C 
ATOM      3  C   UNL     1      12.063   0.982   0.000  1.00  0.00    +0.146 C 
ATOM      4  C   UNL     1      11.197   1.482   0.000  1.00  0.00    +0.115 C 
ATOM      5  C   UNL     1      10.331  -0.018   0.000  1.00  0.00    +0.114 C 
ATOM      6  C   UNL     1      10.331   0.982   0.000  1.00  0.00    +0.112 C 
ENDROOT
BRANCH   3   7
ATOM      7  O   UNL     1      12.929   1.482   0.000  1.00  0.00    -0.383 OA
ATOM      8  H   UNL     1      13.769   0.997   0.000  1.00  0.00    +0.000 HD
ENDBRANCH   3   7
BRANCH   4   9
ATOM      9  O   UNL     1      11.197   2.482   0.000  1.00  0.00    -0.386 OA
ATOM     10  H   UNL     1      12.037   2.967   0.000  1.00  0.00    +0.000 HD
ENDBRANCH   4   9
BRANCH   6  11
ATOM     11  O   UNL     1       9.465   1.482   0.000  1.00  0.00    -0.386 OA
ATOM     12  H   UNL     1       9.465   2.452   0.000  1.00  0.00    +0.000 HD
ENDBRANCH   6  11
BRANCH   2  13
ATOM     13  O   UNL     1      12.929  -0.518   0.000  1.00  0.00    -0.432 OA
BRANCH  13  15
ATOM     14  O   UNL     1      13.795   0.982   0.000  1.00  0.00    -0.250 OA
ATOM     15  C   UNL     1      13.795  -0.018   0.000  1.00  0.00    +0.316 C 
BRANCH  15  29
ATOM     16  C   UNL     1      17.339   0.983   0.000  1.00  0.00    -0.019 C 
ATOM     17  C   UNL     1      18.201   0.476   0.000  1.00  0.00    -0.026 C 
ATOM     18  C   UNL     1      19.115   0.976   0.000  1.00  0.00    -0.023 C 
ATOM     19  C   UNL     1      16.469   0.489   0.000  1.00  0.00    -0.005 C 
ATOM     20  C   UNL     1      19.131   2.017   0.000  1.00  0.00    -0.025 C 
ATOM     21  C   UNL     1      17.331   2.024   0.000  1.00  0.00    -0.046 C 
ATOM     22  C   UNL     1      16.461  -0.511   0.000  1.00  0.00    -0.063 C 
ATOM     23  C   UNL     1      18.233   2.545   0.000  1.00  0.00    -0.049 C 
ATOM     24  C   UNL     1      20.071   2.560   0.000  1.00  0.00    +0.023 C 
ATOM     25  C   UNL     1      15.563  -1.038   0.000  1.00  0.00    -0.001 C 
ATOM     26  C   UNL     1      18.193  -0.524   0.000  1.00  0.00    -0.031 C 
ATOM     27  C   UNL     1      20.038   0.405   0.000  1.00  0.00    -0.018 C 
ATOM     28  C   UNL     1      15.579   1.031   0.000  1.00  0.00    -0.042 C 
ATOM     29  C   UNL     1      14.661  -0.518   0.000  1.00  0.00    +0.075 C 
ATOM     30  C   UNL     1      16.702   1.754   0.000  1.00  0.00    -0.058 C 
ATOM     31  C   UNL     1      14.669   0.524   0.000  1.00  0.00    -0.036 C 
ATOM     32  C   UNL     1      21.006   2.010   0.000  1.00  0.00    +0.089 C 
ATOM     33  C   UNL     1      20.989   0.925   0.000  1.00  0.00    +0.082 C 
ATOM     34  C   UNL     1      17.324  -1.017   0.000  1.00  0.00    -0.084 C 
ATOM     35  C   UNL     1      19.100  -0.024   0.000  1.00  0.00    -0.059 C 
ATOM     36  C   UNL     1      16.134   1.432   0.000  1.00  0.00    -0.055 C 
ATOM     37  C   UNL     1      15.580  -2.123   0.000  1.00  0.00    -0.034 C 
ATOM     38  C   UNL     1      13.713  -1.046   0.000  1.00  0.00    -0.036 C 
ATOM     39  C   UNL     1      14.645  -2.673   0.000  1.00  0.00    -0.041 C 
ATOM     40  C   UNL     1      19.574   3.428   0.000  1.00  0.00    -0.055 C 
ATOM     41  C   UNL     1      13.705  -2.131   0.000  1.00  0.00    -0.049 C 
ATOM     42  C   UNL     1      16.452  -2.613   0.000  1.00  0.00    -0.062 C 
ATOM     43  C   UNL     1      14.649  -3.673   0.000  1.00  0.00    -0.062 C 
BRANCH  32  44
ATOM     44  O   UNL     1      21.878   2.500   0.000  1.00  0.00    -0.389 OA
ATOM     45  H   UNL     1      22.712   2.005   0.000  1.00  0.00    +0.000 HD
ENDBRANCH  32  44
BRANCH  33  46
ATOM     46  O   UNL     1      21.846   0.409   0.000  1.00  0.00    -0.389 OA
ATOM     47  H   UNL     1      21.827  -0.561   0.000  1.00  0.00    +0.000 HD
ENDBRANCH  33  46
BRANCH  24  48
ATOM     48  C   UNL     1      20.574   3.424   0.000  1.00  0.00    +0.052 C 
BRANCH  48  49
ATOM     49  O   UNL     1      20.077   4.292   0.000  1.00  0.00    -0.394 OA
ATOM     50  H   UNL     1      20.566   5.130   0.000  1.00  0.00    +0.000 HD
ENDBRANCH  48  49
ENDBRANCH  24  48
ENDBRANCH  15  29
ENDBRANCH  13  15
ENDBRANCH   2  13
BRANCH   5  51
ATOM     51  C   UNL     1       9.465  -0.518   0.000  1.00  0.00    +0.080 C 
BRANCH  51  52
ATOM     52  O   UNL     1       9.465  -1.518   0.000  1.00  0.00    -0.346 OA
BRANCH  52  54
ATOM     53  O   UNL     1       7.733  -1.518   0.000  1.00  0.00    -0.341 OA
ATOM     54  C   UNL     1       8.599  -2.018   0.000  1.00  0.00    +0.188 C 
ATOM     55  C   UNL     1       8.599  -3.018   0.000  1.00  0.00    +0.134 C 
ATOM     56  C   UNL     1       7.733  -3.518   0.000  1.00  0.00    +0.114 C 
ATOM     57  C   UNL     1       6.867  -2.018   0.000  1.00  0.00    +0.113 C 
ATOM     58  C   UNL     1       6.867  -3.018   0.000  1.00  0.00    +0.118 C 
BRANCH  55  59
ATOM     59  O   UNL     1       9.465  -3.518   0.000  1.00  0.00    -0.384 OA
ATOM     60  H   UNL     1       9.465  -4.488   0.000  1.00  0.00    +0.000 HD
ENDBRANCH  55  59
BRANCH  56  61
ATOM     61  O   UNL     1       7.733  -4.518   0.000  1.00  0.00    -0.386 OA
ATOM     62  H   UNL     1       6.893  -5.003   0.000  1.00  0.00    +0.000 HD
ENDBRANCH  56  61
BRANCH  58  63
ATOM     63  O   UNL     1       6.001  -3.518   0.000  1.00  0.00    -0.340 OA
BRANCH  63  65
ATOM     64  O   UNL     1       5.135  -2.018   0.000  1.00  0.00    -0.343 OA
ATOM     65  C   UNL     1       5.135  -3.018   0.000  1.00  0.00    +0.188 C 
ATOM     66  C   UNL     1       4.269  -3.518   0.000  1.00  0.00    +0.134 C 
ATOM     67  C   UNL     1       3.403  -3.018   0.000  1.00  0.00    +0.114 C 
ATOM     68  C   UNL     1       4.269  -1.518   0.000  1.00  0.00    +0.087 C 
ATOM     69  C   UNL     1       3.403  -2.018   0.000  1.00  0.00    +0.109 C 
ATOM     70  C   UNL     1       4.269  -0.518   0.000  1.00  0.00    -0.036 C 
BRANCH  66  71
ATOM     71  O   UNL     1       4.269  -4.518   0.000  1.00  0.00    -0.384 OA
ATOM     72  H   UNL     1       3.429  -5.003   0.000  1.00  0.00    +0.000 HD
ENDBRANCH  66  71
BRANCH  67  73
ATOM     73  O   UNL     1       2.537  -3.518   0.000  1.00  0.00    -0.386 OA
ATOM     74  H   UNL     1       1.697  -3.033   0.000  1.00  0.00    +0.000 HD
ENDBRANCH  67  73
BRANCH  69  75
ATOM     75  O   UNL     1       2.537  -1.518   0.000  1.00  0.00    -0.387 OA
ATOM     76  H   UNL     1       2.537  -0.548   0.000  1.00  0.00    +0.000 HD
ENDBRANCH  69  75
ENDBRANCH  63  65
ENDBRANCH  58  63
BRANCH  57  77
ATOM     77  C   UNL     1       6.001  -1.518   0.000  1.00  0.00    +0.073 C 
BRANCH  77  78
ATOM     78  O   UNL     1       6.001  -0.518   0.000  1.00  0.00    -0.392 OA
ATOM     79  H   UNL     1       6.841  -0.033   0.000  1.00  0.00    +0.000 HD
ENDBRANCH  77  78
ENDBRANCH  57  77
ENDBRANCH  52  54
ENDBRANCH  51  52
ENDBRANCH   5  51
TORSDOF 22
