REMARK  Name = 139035031
REMARK  14 active torsions:
REMARK  status: ('A' for Active; 'I' for Inactive)
REMARK    1  A    between atoms: N_6  and  CA_12
REMARK    2  A    between atoms: N_6  and  C_15
REMARK    3  A    between atoms: N_8  and  CA_17
REMARK    4  A    between atoms: N_9  and  CA_20
REMARK    5  A    between atoms: NZ_11  and  CE_25
REMARK    6  A    between atoms: CA_12  and  CB_13
REMARK    7  A    between atoms: CA_12  and  C_16
REMARK    8  A    between atoms: CB_13  and  CG_14
REMARK    9  A    between atoms: C_15  and  CA_17
REMARK   10  A    between atoms: CA_20  and  CB_21
REMARK   11  A    between atoms: CA_20  and  C_24
REMARK   12  A    between atoms: CB_21  and  CG_22
REMARK   13  A    between atoms: CG_22  and  CD_23
REMARK   14  A    between atoms: CD_23  and  CE_25
REMARK                            x       y       z     vdW  Elec       q    Type
REMARK                         _______ _______ _______ _____ _____    ______ ____
ROOT
ATOM      1 CU   UNL     1       5.016  -1.783   0.000  1.00  0.00    +0.000 Cu
ENDROOT
TORSDOF 0
REMARK  Name = 139035031
REMARK  14 active torsions:
REMARK  status: ('A' for Active; 'I' for Inactive)
REMARK    1  A    between atoms: N_6  and  CA_12
REMARK    2  A    between atoms: N_6  and  C_15
REMARK    3  A    between atoms: N_8  and  CA_17
REMARK    4  A    between atoms: N_9  and  CA_20
REMARK    5  A    between atoms: NZ_11  and  CE_25
REMARK    6  A    between atoms: CA_12  and  CB_13
REMARK    7  A    between atoms: CA_12  and  C_16
REMARK    8  A    between atoms: CB_13  and  CG_14
REMARK    9  A    between atoms: C_15  and  CA_17
REMARK   10  A    between atoms: CA_20  and  CB_21
REMARK   11  A    between atoms: CA_20  and  C_24
REMARK   12  A    between atoms: CB_21  and  CG_22
REMARK   13  A    between atoms: CG_22  and  CD_23
REMARK   14  A    between atoms: CD_23  and  CE_25
REMARK                            x       y       z     vdW  Elec       q    Type
REMARK                         _______ _______ _______ _____ _____    ______ ____
ROOT
ATOM      1  CA  HIS A   2       5.882  -0.283   0.000  1.00  0.00    +0.000 C 
ENDROOT
BRANCH   1   4
ATOM      2  O   HIS A   2       7.614  -0.283   0.000  1.00  0.00    +0.000 OA
ATOM      3  N   LYS A   3       6.748   1.217   0.000  1.00  0.00    +0.000 N 
ATOM      4  C   HIS A   2       6.748   0.217   0.000  1.00  0.00    +0.000 C 
ATOM      5  H   LYS A   3       5.895   1.709   0.000  1.00  0.00    +0.000 HD
BRANCH   3   6
ATOM      6  CA  LYS A   3       7.614   1.717   0.000  1.00  0.00    +0.000 C 
BRANCH   6   9
ATOM      7  O   LYS A   3       8.480   3.217   0.000  1.00  0.00    +0.000 OA
ATOM      8  OXT LYS A   3       6.748   3.217   0.000  1.00  0.00    +0.000 OA
ATOM      9  C   LYS A   3       7.614   2.717   0.000  1.00  0.00    +0.000 C 
ENDBRANCH   6   9
BRANCH   6  10
ATOM     10  CB  LYS A   3       8.480   1.217   0.000  1.00  0.00    +0.000 C 
BRANCH  10  11
ATOM     11  CG  LYS A   3       9.346   1.717   0.000  1.00  0.00    +0.000 C 
BRANCH  11  12
ATOM     12  CD  LYS A   3      10.212   1.217   0.000  1.00  0.00    +0.000 C 
BRANCH  12  13
ATOM     13  CE  LYS A   3      11.078   1.717   0.000  1.00  0.00    +0.000 C 
BRANCH  13  14
ATOM     14  NZ  LYS A   3      11.944   1.217   0.000  1.00  0.00    +0.000 N 
ATOM     15  HZ1 LYS A   3      11.944   0.197   0.000  1.00  0.00    +0.000 HD
ATOM     16  HZ2 LYS A   3      12.827   1.727   0.000  1.00  0.00    +0.000 HD
ATOM     17  HZ3 LYS A   3      12.827   0.707   0.000  1.00  0.00    +0.000 HD
ENDBRANCH  13  14
ENDBRANCH  12  13
ENDBRANCH  11  12
ENDBRANCH  10  11
ENDBRANCH   6  10
ENDBRANCH   3   6
ENDBRANCH   1   4
BRANCH   1  18
ATOM     18  N   HIS A   2       5.882  -1.283   0.000  1.00  0.00    +0.000 NA
BRANCH  18  20
ATOM     19  O   GLY A   1       7.597  -1.744   0.000  1.00  0.00    +0.000 OA
ATOM     20  C   GLY A   1       6.619  -1.950   0.000  1.00  0.00    +0.000 C 
BRANCH  20  21
ATOM     21  CA  GLY A   1       6.214  -2.858   0.000  1.00  0.00    +0.000 C 
BRANCH  21  22
ATOM     22  N   GLY A   1       5.225  -2.755   0.000  1.00  0.00    +0.000 N 
ATOM     23  H1  GLY A   1       4.809  -1.824   0.000  1.00  0.00    +0.000 HD
ATOM     24  H2  GLY A   1       4.626  -3.581   0.000  1.00  0.00    +0.000 HD
ATOM     25  H3  GLY A   1       4.211  -2.650   0.000  1.00  0.00    +0.000 HD
ENDBRANCH  21  22
ENDBRANCH  20  21
ENDBRANCH  18  20
ENDBRANCH   1  18
BRANCH   1  26
ATOM     26  CB  HIS A   2       5.016   0.217   0.000  1.00  0.00    +0.000 C 
BRANCH  26  29
ATOM     27  ND1 HIS A   2       4.150  -1.283   0.000  1.00  0.00    +0.000 NA
ATOM     28  NE2 HIS A   2       2.620  -0.783   0.000  1.00  0.00    +0.000 N 
ATOM     29  CG  HIS A   2       4.150  -0.283   0.000  1.00  0.00    +0.000 A 
ATOM     30  CD2 HIS A   2       3.204   0.021   0.000  1.00  0.00    +0.000 A 
ATOM     31  CE1 HIS A   2       3.204  -1.588   0.000  1.00  0.00    +0.000 A 
ATOM     32  HE2 HIS A   2       1.636  -0.783   0.000  1.00  0.00    +0.000 HD
ENDBRANCH  26  29
ENDBRANCH   1  26
TORSDOF 14
