REMARK  Name = 757
REMARK  2 active torsions:
REMARK  status: ('A' for Active; 'I' for Inactive)
REMARK    1  A    between atoms: O_1  and  C_4
REMARK    2  A    between atoms: C_4  and  C_5
REMARK                            x       y       z     vdW  Elec       q    Type
REMARK                         _______ _______ _______ _____ _____    ______ ____
ROOT
ATOM      1  C   UNL     1      -0.752  -0.752  -0.012  1.00  0.00    +0.141 C 
ENDROOT
BRANCH   1   4
ATOM      2  O   UNL     1       1.595  -0.720   0.008  1.00  0.00    -0.479 OA
ATOM      3  O   UNL     1       0.545   1.302  -0.003  1.00  0.00    -0.248 OA
ATOM      4  C   UNL     1       0.499   0.081  -0.003  1.00  0.00    +0.330 C 
ENDBRANCH   1   4
BRANCH   1   5
ATOM      5  O   UNL     1      -1.888   0.089   0.010  1.00  0.00    -0.384 OA
ATOM      6  H   UNL     1      -2.692  -0.453   0.004  1.00  0.00    +0.000 HD
ENDBRANCH   1   5
TORSDOF 2
