REMARK  Name = 612
REMARK  3 active torsions:
REMARK  status: ('A' for Active; 'I' for Inactive)
REMARK    1  A    between atoms: O_1  and  C_4
REMARK    2  A    between atoms: C_4  and  C_5
REMARK    3  A    between atoms: C_4  and  C_6
REMARK                            x       y       z     vdW  Elec       q    Type
REMARK                         _______ _______ _______ _____ _____    ______ ____
ROOT
ATOM      1  C   UNL     1      -0.708  -0.112   0.400  1.00  0.00    +0.149 C 
ATOM      2  C   UNL     1      -1.367  -1.163  -0.476  1.00  0.00    -0.028 C 
ENDROOT
BRANCH   1   5
ATOM      3  O   UNL     1       1.488  -1.037   0.262  1.00  0.00    -0.479 OA
ATOM      4  O   UNL     1       1.226   1.115  -0.412  1.00  0.00    -0.248 OA
ATOM      5  C   UNL     1       0.748   0.078   0.029  1.00  0.00    +0.333 C 
ENDBRANCH   1   5
BRANCH   1   6
ATOM      6  O   UNL     1      -1.387   1.118   0.197  1.00  0.00    -0.381 OA
ATOM      7  H   UNL     1      -2.323   1.013   0.430  1.00  0.00    +0.000 HD
ENDBRANCH   1   6
TORSDOF 2
