REMARK  Name = 9897237
REMARK  43 active torsions:
REMARK  status: ('A' for Active; 'I' for Inactive)
REMARK    1  A    between atoms: OG1_1  and  CB_40
REMARK    2  A    between atoms: OG1_3  and  CB_43
REMARK    3  A    between atoms: O_8  and  CB_55
REMARK    4  A    between atoms: N_11  and  CA_28
REMARK    5  A    between atoms: N_12  and  CA_32
REMARK    6  A    between atoms: N_13  and  CA_34
REMARK    7  A    between atoms: N_14  and  CA_36
REMARK    8  A    between atoms: N_15  and  CA_54
REMARK    9  A    between atoms: NZ_16  and  CE_49
REMARK   10  A    between atoms: NZ_17  and  CE_53
REMARK   11  A    between atoms: C_18  and  C_19
REMARK   12  A    between atoms: C_18  and  C_20
REMARK   13  A    between atoms: C_19  and  C_21
REMARK   14  A    between atoms: C_20  and  C_22
REMARK   15  A    between atoms: C_21  and  C_23
REMARK   16  A    between atoms: C_22  and  C_24
REMARK   17  A    between atoms: C_23  and  C_25
REMARK   18  A    between atoms: C_24  and  C_26
REMARK   19  A    between atoms: C_25  and  C_27
REMARK   20  A    between atoms: C_26  and  C_30
REMARK   21  A    between atoms: C_27  and  C_31
REMARK   22  A    between atoms: CA_28  and  CB_29
REMARK   23  A    between atoms: CA_28  and  C_37
REMARK   24  A    between atoms: CB_29  and  CG_33
REMARK   25  A    between atoms: C_30  and  C_35
REMARK   26  A    between atoms: C_31  and  C_38
REMARK   27  A    between atoms: CA_32  and  CB_40
REMARK   28  A    between atoms: CA_32  and  C_41
REMARK   29  A    between atoms: CG_33  and  CD_42
REMARK   30  A    between atoms: CA_34  and  CB_43
REMARK   31  A    between atoms: CA_34  and  C_45
REMARK   32  A    between atoms: C_35  and  C_46
REMARK   33  A    between atoms: CA_36  and  CB_39
REMARK   34  A    between atoms: CA_36  and  C_48
REMARK   35  A    between atoms: CB_39  and  CG_44
REMARK   36  A    between atoms: CB_40  and  CG2_50
REMARK   37  A    between atoms: CD_42  and  CE_49
REMARK   38  A    between atoms: CB_43  and  CG2_51
REMARK   39  A    between atoms: CG_44  and  CD_47
REMARK   40  A    between atoms: C_46  and  C_52
REMARK   41  A    between atoms: CD_47  and  CE_53
REMARK   42  A    between atoms: CA_54  and  CB_55
REMARK   43  A    between atoms: CA_54  and  C_56
REMARK                            x       y       z     vdW  Elec       q    Type
REMARK                         _______ _______ _______ _____ _____    ______ ____
ROOT
ATOM      1  CA  UNL     1      19.320   0.250   0.000  1.00  0.00    +0.125 C 
ENDROOT
BRANCH   1   3
ATOM      2  O   UNL     1      17.588   1.250   0.000  1.00  0.00    -0.274 OA
ATOM      3  N   UNL     1      18.454  -0.250   0.000  1.00  0.00    -0.300 N 
ATOM      4  C   UNL     1      17.588   0.250   0.000  1.00  0.00    +0.234 C 
ATOM      5  H   UNL     1      18.454  -1.234   0.000  1.00  0.00    +0.000 HD
BRANCH   4   6
ATOM      6  CA  UNL     1      16.722  -0.250   0.000  1.00  0.00    +0.099 C 
BRANCH   6   8
ATOM      7  O   UNL     1      14.990  -1.250   0.000  1.00  0.00    -0.276 OA
ATOM      8  N   UNL     1      15.856   0.250   0.000  1.00  0.00    -0.304 N 
ATOM      9  C   ACE A   0      14.990  -0.250   0.000  1.00  0.00    +0.214 C 
ATOM     10  H   UNL     1      15.856   1.234   0.000  1.00  0.00    +0.000 HD
BRANCH   9  11
ATOM     11  C   UNL     1      14.124   0.250   0.000  1.00  0.00    +0.024 C 
BRANCH  11  12
ATOM     12  C   UNL     1      13.258  -0.250   0.000  1.00  0.00    -0.045 C 
BRANCH  12  13
ATOM     13  C   UNL     1      12.392   0.250   0.000  1.00  0.00    -0.053 C 
BRANCH  13  14
ATOM     14  C   UNL     1      11.526  -0.250   0.000  1.00  0.00    -0.053 C 
BRANCH  14  15
ATOM     15  C   UNL     1      10.660   0.250   0.000  1.00  0.00    -0.053 C 
BRANCH  15  16
ATOM     16  C   UNL     1       9.794  -0.250   0.000  1.00  0.00    -0.053 C 
BRANCH  16  17
ATOM     17  C   UNL     1       8.928   0.250   0.000  1.00  0.00    -0.053 C 
BRANCH  17  18
ATOM     18  C   UNL     1       8.062  -0.250   0.000  1.00  0.00    -0.053 C 
BRANCH  18  19
ATOM     19  C   UNL     1       7.196   0.250   0.000  1.00  0.00    -0.053 C 
BRANCH  19  20
ATOM     20  C   UNL     1       6.330  -0.250   0.000  1.00  0.00    -0.053 C 
BRANCH  20  21
ATOM     21  C   UNL     1       5.464   0.250   0.000  1.00  0.00    -0.053 C 
BRANCH  21  22
ATOM     22  C   UNL     1       4.598  -0.250   0.000  1.00  0.00    -0.053 C 
BRANCH  22  23
ATOM     23  C   UNL     1       3.732   0.250   0.000  1.00  0.00    -0.053 C 
BRANCH  23  24
ATOM     24  C   UNL     1       2.866  -0.250   0.000  1.00  0.00    -0.056 C 
ATOM     25  C   UNL     1       2.000   0.250   0.000  1.00  0.00    -0.065 C 
ENDBRANCH  23  24
ENDBRANCH  22  23
ENDBRANCH  21  22
ENDBRANCH  20  21
ENDBRANCH  19  20
ENDBRANCH  18  19
ENDBRANCH  17  18
ENDBRANCH  16  17
ENDBRANCH  15  16
ENDBRANCH  14  15
ENDBRANCH  13  14
ENDBRANCH  12  13
ENDBRANCH  11  12
ENDBRANCH   9  11
ENDBRANCH   6   8
BRANCH   6  26
ATOM     26  CB  UNL     1      16.722  -1.250   0.000  1.00  0.00    -0.026 C 
BRANCH  26  27
ATOM     27  CG  UNL     1      15.856  -1.750   0.000  1.00  0.00    -0.050 C 
BRANCH  27  28
ATOM     28  CD  UNL     1      15.856  -2.750   0.000  1.00  0.00    -0.041 C 
BRANCH  28  29
ATOM     29  CE  UNL     1      14.990  -3.250   0.000  1.00  0.00    -0.007 C 
BRANCH  29  30
ATOM     30  NZ  UNL     1      14.990  -4.250   0.000  1.00  0.00    -0.330 N 
ATOM     31  HZ1 UNL     1      14.107  -4.760   0.000  1.00  0.00    +0.000 HD
ATOM     32  HZ2 UNL     1      15.874  -4.760   0.000  1.00  0.00    +0.000 HD
ATOM     33  HZ3 UNL     1      14.990  -5.270   0.000  1.00  0.00    +0.000 HD
ENDBRANCH  29  30
ENDBRANCH  28  29
ENDBRANCH  27  28
ENDBRANCH  26  27
ENDBRANCH   6  26
ENDBRANCH   4   6
ENDBRANCH   1   3
BRANCH   1  36
ATOM     34  O   UNL     1      20.186  -1.250   0.000  1.00  0.00    -0.274 OA
ATOM     35  N   UNL     1      21.053   0.250   0.000  1.00  0.00    -0.300 N 
ATOM     36  C   UNL     1      20.186  -0.250   0.000  1.00  0.00    +0.237 C 
ATOM     37  H   UNL     1      21.053   1.234   0.000  1.00  0.00    +0.000 HD
BRANCH  35  38
ATOM     38  CA  UNL     1      21.919  -0.250   0.000  1.00  0.00    +0.125 C 
BRANCH  38  41
ATOM     39  O   UNL     1      22.785   1.250   0.000  1.00  0.00    -0.274 OA
ATOM     40  N   UNL     1      23.651  -0.250   0.000  1.00  0.00    -0.302 N 
ATOM     41  C   UNL     1      22.785   0.250   0.000  1.00  0.00    +0.236 C 
ATOM     42  H   UNL     1      23.651  -1.234   0.000  1.00  0.00    +0.000 HD
BRANCH  40  43
ATOM     43  CA  UNL     1      24.517   0.250   0.000  1.00  0.00    +0.099 C 
BRANCH  43  46
ATOM     44  O   UNL     1      25.383  -1.250   0.000  1.00  0.00    -0.274 OA
ATOM     45  N   UNL     1      26.249   0.250   0.000  1.00  0.00    -0.299 N 
ATOM     46  C   UNL     1      25.383  -0.250   0.000  1.00  0.00    +0.234 C 
ATOM     47  H   UNL     1      26.249   1.234   0.000  1.00  0.00    +0.000 HD
BRANCH  45  48
ATOM     48  CA  UNL     1      27.115  -0.250   0.000  1.00  0.00    +0.144 C 
BRANCH  48  51
ATOM     49  O   UNL     1      28.847  -0.250   0.000  1.00  0.00    -0.479 OA
ATOM     50  OXT UNL     1      27.981   1.250   0.000  1.00  0.00    -0.249 OA
ATOM     51  C   UNL     1      27.981   0.250   0.000  1.00  0.00    +0.328 C 
ENDBRANCH  48  51
BRANCH  48  52
ATOM     52  CB  UNL     1      27.115  -1.250   0.000  1.00  0.00    +0.073 C 
BRANCH  52  53
ATOM     53  O   UNL     1      27.981  -1.750   0.000  1.00  0.00    -0.393 OA
ATOM     54  H   UNL     1      27.981  -2.720   0.000  1.00  0.00    +0.000 HD
ENDBRANCH  52  53
ENDBRANCH  48  52
ENDBRANCH  45  48
ENDBRANCH  43  46
BRANCH  43  55
ATOM     55  CB  UNL     1      24.517   1.250   0.000  1.00  0.00    -0.026 C 
BRANCH  55  56
ATOM     56  CG  UNL     1      25.383   1.750   0.000  1.00  0.00    -0.050 C 
BRANCH  56  57
ATOM     57  CD  UNL     1      25.383   2.750   0.000  1.00  0.00    -0.041 C 
BRANCH  57  58
ATOM     58  CE  UNL     1      26.249   3.250   0.000  1.00  0.00    -0.007 C 
BRANCH  58  59
ATOM     59  NZ  UNL     1      26.249   4.250   0.000  1.00  0.00    -0.330 N 
ATOM     60  HZ1 UNL     1      27.132   4.760   0.000  1.00  0.00    +0.000 HD
ATOM     61  HZ2 UNL     1      25.365   4.760   0.000  1.00  0.00    +0.000 HD
ATOM     62  HZ3 UNL     1      26.249   5.270   0.000  1.00  0.00    +0.000 HD
ENDBRANCH  58  59
ENDBRANCH  57  58
ENDBRANCH  56  57
ENDBRANCH  55  56
ENDBRANCH  43  55
ENDBRANCH  40  43
ENDBRANCH  38  41
BRANCH  38  63
ATOM     63  CB  UNL     1      21.919  -1.250   0.000  1.00  0.00    +0.079 C 
ATOM     64  CG2 UNL     1      22.785  -1.750   0.000  1.00  0.00    -0.037 C 
BRANCH  63  65
ATOM     65  OG1 UNL     1      21.053  -1.750   0.000  1.00  0.00    -0.390 OA
ATOM     66  HG1 UNL     1      20.213  -1.265   0.000  1.00  0.00    +0.000 HD
ENDBRANCH  63  65
ENDBRANCH  38  63
ENDBRANCH  35  38
ENDBRANCH   1  36
BRANCH   1  67
ATOM     67  CB  UNL     1      19.320   1.250   0.000  1.00  0.00    +0.079 C 
ATOM     68  CG2 UNL     1      20.186   1.750   0.000  1.00  0.00    -0.037 C 
BRANCH  67  69
ATOM     69  OG1 UNL     1      18.454   1.750   0.000  1.00  0.00    -0.390 OA
ATOM     70  HG1 UNL     1      18.455   2.720   0.000  1.00  0.00    +0.000 HD
ENDBRANCH  67  69
ENDBRANCH   1  67
TORSDOF 40
